V -t * -v 1.0a5 -a 0
A -t * -n 1 -p 0 -o 0x7fffffff -c 30 -a 1
A -t * -h 1 -m 1073741823 -s 0
c -t * -i 1 -n Blue
c -t * -i 2 -n Red
n -t * -a 8 -s 8 -S UP -v circle -c black -i black
n -t * -a 4 -s 4 -S UP -v circle -c black -i black
n -t * -a 0 -s 0 -S UP -v circle -c black -i black
n -t * -a 5 -s 5 -S UP -v circle -c black -i black
n -t * -a 1 -s 1 -S UP -v circle -c black -i black
n -t * -a 6 -s 6 -S UP -v circle -c black -i black
n -t * -a 2 -s 2 -S UP -v circle -c black -i black
n -t * -a 7 -s 7 -S UP -v circle -c black -i black
n -t * -a 3 -s 3 -S UP -v circle -c black -i black
l -t * -s 1 -d 0 -S UP -r 2000000 -D 0.01 -c black
l -t * -s 2 -d 0 -S UP -r 2000000 -D 0.02 -c black
l -t * -s 3 -d 1 -S UP -r 2000000 -D 0.0141 -c black
l -t * -s 4 -d 1 -S UP -r 2000000 -D 0.01 -c black
l -t * -s 5 -d 2 -S UP -r 2000000 -D 0.01 -c black
l -t * -s 6 -d 2 -S UP -r 2000000 -D 0.028300000000000002 -c black
l -t * -s 7 -d 3 -S UP -r 2000000 -D 0.0141 -c black
l -t * -s 8 -d 3 -S UP -r 2000000 -D 0.022400000000000003 -c black
+ -t 0.5 -s 8 -d 3 -p cbr -e 100 -c 0 -i 0 -a 0 -x {8.0 0.0 0 ------- null}
- -t 0.5 -s 8 -d 3 -p cbr -e 100 -c 0 -i 0 -a 0 -x {8.0 0.0 0 ------- null}
h -t 0.5 -s 8 -d 3 -p cbr -e 100 -c 0 -i 0 -a 0 -x {8.0 0.0 -1 ------- null}
+ -t 0.51 -s 8 -d 3 -p cbr -e 100 -c 0 -i 1 -a 0 -x {8.0 0.0 1 ------- null}
- -t 0.51 -s 8 -d 3 -p cbr -e 100 -c 0 -i 1 -a 0 -x {8.0 0.0 1 ------- null}
h -t 0.51 -s 8 -d 3 -p cbr -e 100 -c 0 -i 1 -a 0 -x {8.0 0.0 -1 ------- null}
+ -t 0.52 -s 8 -d 3 -p cbr -e 100 -c 0 -i 2 -a 0 -x {8.0 0.0 2 ------- null}
- -t 0.52 -s 8 -d 3 -p cbr -e 100 -c 0 -i 2 -a 0 -x {8.0 0.0 2 ------- null}
h -t 0.52 -s 8 -d 3 -p cbr -e 100 -c 0 -i 2 -a 0 -x {8.0 0.0 -1 ------- null}
r -t 0.5228 -s 8 -d 3 -p cbr -e 100 -c 0 -i 0 -a 0 -x {8.0 0.0 0 ------- null}
+ -t 0.5228 -s 3 -d 1 -p cbr -e 100 -c 0 -i 0 -a 0 -x {8.0 0.0 0 ------- null}
- -t 0.5228 -s 3 -d 1 -p cbr -e 100 -c 0 -i 0 -a 0 -x {8.0 0.0 0 ------- null}
h -t 0.5228 -s 3 -d 1 -p cbr -e 100 -c 0 -i 0 -a 0 -x {8.0 0.0 -1 ------- null}
+ -t 0.53 -s 8 -d 3 -p cbr -e 100 -c 0 -i 3 -a 0 -x {8.0 0.0 3 ------- null}
- -t 0.53 -s 8 -d 3 -p cbr -e 100 -c 0 -i 3 -a 0 -x {8.0 0.0 3 ------- null}
h -t 0.53 -s 8 -d 3 -p cbr -e 100 -c 0 -i 3 -a 0 -x {8.0 0.0 -1 ------- null}
r -t 0.5328 -s 8 -d 3 -p cbr -e 100 -c 0 -i 1 -a 0 -x {8.0 0.0 1 ------- null}
+ -t 0.5328 -s 3 -d 1 -p cbr -e 100 -c 0 -i 1 -a 0 -x {8.0 0.0 1 ------- null}
- -t 0.5328 -s 3 -d 1 -p cbr -e 100 -c 0 -i 1 -a 0 -x {8.0 0.0 1 ------- null}
h -t 0.5328 -s 3 -d 1 -p cbr -e 100 -c 0 -i 1 -a 0 -x {8.0 0.0 -1 ------- null}
r -t 0.5373 -s 3 -d 1 -p cbr -e 100 -c 0 -i 0 -a 0 -x {8.0 0.0 0 ------- null}
+ -t 0.5373 -s 1 -d 0 -p cbr -e 100 -c 0 -i 0 -a 0 -x {8.0 0.0 0 ------- null}
- -t 0.5373 -s 1 -d 0 -p cbr -e 100 -c 0 -i 0 -a 0 -x {8.0 0.0 0 ------- null}
h -t 0.5373 -s 1 -d 0 -p cbr -e 100 -c 0 -i 0 -a 0 -x {8.0 0.0 -1 ------- null}
+ -t 0.54 -s 8 -d 3 -p cbr -e 100 -c 0 -i 4 -a 0 -x {8.0 0.0 4 ------- null}
- -t 0.54 -s 8 -d 3 -p cbr -e 100 -c 0 -i 4 -a 0 -x {8.0 0.0 4 ------- null}
h -t 0.54 -s 8 -d 3 -p cbr -e 100 -c 0 -i 4 -a 0 -x {8.0 0.0 -1 ------- null}
r -t 0.5428 -s 8 -d 3 -p cbr -e 100 -c 0 -i 2 -a 0 -x {8.0 0.0 2 ------- null}
+ -t 0.5428 -s 3 -d 1 -p cbr -e 100 -c 0 -i 2 -a 0 -x {8.0 0.0 2 ------- null}
- -t 0.5428 -s 3 -d 1 -p cbr -e 100 -c 0 -i 2 -a 0 -x {8.0 0.0 2 ------- null}
h -t 0.5428 -s 3 -d 1 -p cbr -e 100 -c 0 -i 2 -a 0 -x {8.0 0.0 -1 ------- null}
r -t 0.5473 -s 3 -d 1 -p cbr -e 100 -c 0 -i 1 -a 0 -x {8.0 0.0 1 ------- null}
+ -t 0.5473 -s 1 -d 0 -p cbr -e 100 -c 0 -i 1 -a 0 -x {8.0 0.0 1 ------- null}
- -t 0.5473 -s 1 -d 0 -p cbr -e 100 -c 0 -i 1 -a 0 -x {8.0 0.0 1 ------- null}
h -t 0.5473 -s 1 -d 0 -p cbr -e 100 -c 0 -i 1 -a 0 -x {8.0 0.0 -1 ------- null}
r -t 0.5477 -s 1 -d 0 -p cbr -e 100 -c 0 -i 0 -a 0 -x {8.0 0.0 0 ------- null}
+ -t 0.55 -s 8 -d 3 -p cbr -e 100 -c 0 -i 5 -a 0 -x {8.0 0.0 5 ------- null}
- -t 0.55 -s 8 -d 3 -p cbr -e 100 -c 0 -i 5 -a 0 -x {8.0 0.0 5 ------- null}
h -t 0.55 -s 8 -d 3 -p cbr -e 100 -c 0 -i 5 -a 0 -x {8.0 0.0 -1 ------- null}
r -t 0.5528 -s 8 -d 3 -p cbr -e 100 -c 0 -i 3 -a 0 -x {8.0 0.0 3 ------- null}
+ -t 0.5528 -s 3 -d 1 -p cbr -e 100 -c 0 -i 3 -a 0 -x {8.0 0.0 3 ------- null}
- -t 0.5528 -s 3 -d 1 -p cbr -e 100 -c 0 -i 3 -a 0 -x {8.0 0.0 3 ------- null}
h -t 0.5528 -s 3 -d 1 -p cbr -e 100 -c 0 -i 3 -a 0 -x {8.0 0.0 -1 ------- null}
r -t 0.5573 -s 3 -d 1 -p cbr -e 100 -c 0 -i 2 -a 0 -x {8.0 0.0 2 ------- null}
+ -t 0.5573 -s 1 -d 0 -p cbr -e 100 -c 0 -i 2 -a 0 -x {8.0 0.0 2 ------- null}
- -t 0.5573 -s 1 -d 0 -p cbr -e 100 -c 0 -i 2 -a 0 -x {8.0 0.0 2 ------- null}
h -t 0.5573 -s 1 -d 0 -p cbr -e 100 -c 0 -i 2 -a 0 -x {8.0 0.0 -1 ------- null}
r -t 0.5577 -s 1 -d 0 -p cbr -e 100 -c 0 -i 1 -a 0 -x {8.0 0.0 1 ------- null}
+ -t 0.56 -s 8 -d 3 -p cbr -e 100 -c 0 -i 6 -a 0 -x {8.0 0.0 6 ------- null}
- -t 0.56 -s 8 -d 3 -p cbr -e 100 -c 0 -i 6 -a 0 -x {8.0 0.0 6 ------- null}
h -t 0.56 -s 8 -d 3 -p cbr -e 100 -c 0 -i 6 -a 0 -x {8.0 0.0 -1 ------- null}
r -t 0.5628 -s 8 -d 3 -p cbr -e 100 -c 0 -i 4 -a 0 -x {8.0 0.0 4 ------- null}
+ -t 0.5628 -s 3 -d 1 -p cbr -e 100 -c 0 -i 4 -a 0 -x {8.0 0.0 4 ------- null}
- -t 0.5628 -s 3 -d 1 -p cbr -e 100 -c 0 -i 4 -a 0 -x {8.0 0.0 4 ------- null}
h -t 0.5628 -s 3 -d 1 -p cbr -e 100 -c 0 -i 4 -a 0 -x {8.0 0.0 -1 ------- null}
r -t 0.5673 -s 3 -d 1 -p cbr -e 100 -c 0 -i 3 -a 0 -x {8.0 0.0 3 ------- null}
+ -t 0.5673 -s 1 -d 0 -p cbr -e 100 -c 0 -i 3 -a 0 -x {8.0 0.0 3 ------- null}
- -t 0.5673 -s 1 -d 0 -p cbr -e 100 -c 0 -i 3 -a 0 -x {8.0 0.0 3 ------- null}
h -t 0.5673 -s 1 -d 0 -p cbr -e 100 -c 0 -i 3 -a 0 -x {8.0 0.0 -1 ------- null}
r -t 0.5677 -s 1 -d 0 -p cbr -e 100 -c 0 -i 2 -a 0 -x {8.0 0.0 2 ------- null}
+ -t 0.57 -s 8 -d 3 -p cbr -e 100 -c 0 -i 7 -a 0 -x {8.0 0.0 7 ------- null}
- -t 0.57 -s 8 -d 3 -p cbr -e 100 -c 0 -i 7 -a 0 -x {8.0 0.0 7 ------- null}
h -t 0.57 -s 8 -d 3 -p cbr -e 100 -c 0 -i 7 -a 0 -x {8.0 0.0 -1 ------- null}
r -t 0.5728 -s 8 -d 3 -p cbr -e 100 -c 0 -i 5 -a 0 -x {8.0 0.0 5 ------- null}
+ -t 0.5728 -s 3 -d 1 -p cbr -e 100 -c 0 -i 5 -a 0 -x {8.0 0.0 5 ------- null}
- -t 0.5728 -s 3 -d 1 -p cbr -e 100 -c 0 -i 5 -a 0 -x {8.0 0.0 5 ------- null}
h -t 0.5728 -s 3 -d 1 -p cbr -e 100 -c 0 -i 5 -a 0 -x {8.0 0.0 -1 ------- null}
r -t 0.5773 -s 3 -d 1 -p cbr -e 100 -c 0 -i 4 -a 0 -x {8.0 0.0 4 ------- null}
+ -t 0.5773 -s 1 -d 0 -p cbr -e 100 -c 0 -i 4 -a 0 -x {8.0 0.0 4 ------- null}
- -t 0.5773 -s 1 -d 0 -p cbr -e 100 -c 0 -i 4 -a 0 -x {8.0 0.0 4 ------- null}
h -t 0.5773 -s 1 -d 0 -p cbr -e 100 -c 0 -i 4 -a 0 -x {8.0 0.0 -1 ------- null}
r -t 0.5777 -s 1 -d 0 -p cbr -e 100 -c 0 -i 3 -a 0 -x {8.0 0.0 3 ------- null}
+ -t 0.58 -s 8 -d 3 -p cbr -e 100 -c 0 -i 8 -a 0 -x {8.0 0.0 8 ------- null}
- -t 0.58 -s 8 -d 3 -p cbr -e 100 -c 0 -i 8 -a 0 -x {8.0 0.0 8 ------- null}
h -t 0.58 -s 8 -d 3 -p cbr -e 100 -c 0 -i 8 -a 0 -x {8.0 0.0 -1 ------- null}
r -t 0.5828 -s 8 -d 3 -p cbr -e 100 -c 0 -i 6 -a 0 -x {8.0 0.0 6 ------- null}
+ -t 0.5828 -s 3 -d 1 -p cbr -e 100 -c 0 -i 6 -a 0 -x {8.0 0.0 6 ------- null}
- -t 0.5828 -s 3 -d 1 -p cbr -e 100 -c 0 -i 6 -a 0 -x {8.0 0.0 6 ------- null}
h -t 0.5828 -s 3 -d 1 -p cbr -e 100 -c 0 -i 6 -a 0 -x {8.0 0.0 -1 ------- null}
r -t 0.5873 -s 3 -d 1 -p cbr -e 100 -c 0 -i 5 -a 0 -x {8.0 0.0 5 ------- null}
+ -t 0.5873 -s 1 -d 0 -p cbr -e 100 -c 0 -i 5 -a 0 -x {8.0 0.0 5 ------- null}
- -t 0.5873 -s 1 -d 0 -p cbr -e 100 -c 0 -i 5 -a 0 -x {8.0 0.0 5 ------- null}
h -t 0.5873 -s 1 -d 0 -p cbr -e 100 -c 0 -i 5 -a 0 -x {8.0 0.0 -1 ------- null}
r -t 0.5877 -s 1 -d 0 -p cbr -e 100 -c 0 -i 4 -a 0 -x {8.0 0.0 4 ------- null}
+ -t 0.59 -s 8 -d 3 -p cbr -e 100 -c 0 -i 9 -a 0 -x {8.0 0.0 9 ------- null}
- -t 0.59 -s 8 -d 3 -p cbr -e 100 -c 0 -i 9 -a 0 -x {8.0 0.0 9 ------- null}
h -t 0.59 -s 8 -d 3 -p cbr -e 100 -c 0 -i 9 -a 0 -x {8.0 0.0 -1 ------- null}
r -t 0.5928 -s 8 -d 3 -p cbr -e 100 -c 0 -i 7 -a 0 -x {8.0 0.0 7 ------- null}
+ -t 0.5928 -s 3 -d 1 -p cbr -e 100 -c 0 -i 7 -a 0 -x {8.0 0.0 7 ------- null}
- -t 0.5928 -s 3 -d 1 -p cbr -e 100 -c 0 -i 7 -a 0 -x {8.0 0.0 7 ------- null}
h -t 0.5928 -s 3 -d 1 -p cbr -e 100 -c 0 -i 7 -a 0 -x {8.0 0.0 -1 ------- null}
r -t 0.5973 -s 3 -d 1 -p cbr -e 100 -c 0 -i 6 -a 0 -x {8.0 0.0 6 ------- null}
+ -t 0.5973 -s 1 -d 0 -p cbr -e 100 -c 0 -i 6 -a 0 -x {8.0 0.0 6 ------- null}
- -t 0.5973 -s 1 -d 0 -p cbr -e 100 -c 0 -i 6 -a 0 -x {8.0 0.0 6 ------- null}
h -t 0.5973 -s 1 -d 0 -p cbr -e 100 -c 0 -i 6 -a 0 -x {8.0 0.0 -1 ------- null}
r -t 0.5977 -s 1 -d 0 -p cbr -e 100 -c 0 -i 5 -a 0 -x {8.0 0.0 5 ------- null}
+ -t 0.6 -s 8 -d 3 -p cbr -e 100 -c 0 -i 10 -a 0 -x {8.0 0.0 10 ------- null}
- -t 0.6 -s 8 -d 3 -p cbr -e 100 -c 0 -i 10 -a 0 -x {8.0 0.0 10 ------- null}
h -t 0.6 -s 8 -d 3 -p cbr -e 100 -c 0 -i 10 -a 0 -x {8.0 0.0 -1 ------- null}
r -t 0.6028 -s 8 -d 3 -p cbr -e 100 -c 0 -i 8 -a 0 -x {8.0 0.0 8 ------- null}
+ -t 0.6028 -s 3 -d 1 -p cbr -e 100 -c 0 -i 8 -a 0 -x {8.0 0.0 8 ------- null}
- -t 0.6028 -s 3 -d 1 -p cbr -e 100 -c 0 -i 8 -a 0 -x {8.0 0.0 8 ------- null}
h -t 0.6028 -s 3 -d 1 -p cbr -e 100 -c 0 -i 8 -a 0 -x {8.0 0.0 -1 ------- null}
r -t 0.6073 -s 3 -d 1 -p cbr -e 100 -c 0 -i 7 -a 0 -x {8.0 0.0 7 ------- null}
+ -t 0.6073 -s 1 -d 0 -p cbr -e 100 -c 0 -i 7 -a 0 -x {8.0 0.0 7 ------- null}
- -t 0.6073 -s 1 -d 0 -p cbr -e 100 -c 0 -i 7 -a 0 -x {8.0 0.0 7 ------- null}
h -t 0.6073 -s 1 -d 0 -p cbr -e 100 -c 0 -i 7 -a 0 -x {8.0 0.0 -1 ------- null}
r -t 0.6077 -s 1 -d 0 -p cbr -e 100 -c 0 -i 6 -a 0 -x {8.0 0.0 6 ------- null}
+ -t 0.61 -s 8 -d 3 -p cbr -e 100 -c 0 -i 11 -a 0 -x {8.0 0.0 11 ------- null}
- -t 0.61 -s 8 -d 3 -p cbr -e 100 -c 0 -i 11 -a 0 -x {8.0 0.0 11 ------- null}
h -t 0.61 -s 8 -d 3 -p cbr -e 100 -c 0 -i 11 -a 0 -x {8.0 0.0 -1 ------- null}
r -t 0.6128 -s 8 -d 3 -p cbr -e 100 -c 0 -i 9 -a 0 -x {8.0 0.0 9 ------- null}
+ -t 0.6128 -s 3 -d 1 -p cbr -e 100 -c 0 -i 9 -a 0 -x {8.0 0.0 9 ------- null}
- -t 0.6128 -s 3 -d 1 -p cbr -e 100 -c 0 -i 9 -a 0 -x {8.0 0.0 9 ------- null}
h -t 0.6128 -s 3 -d 1 -p cbr -e 100 -c 0 -i 9 -a 0 -x {8.0 0.0 -1 ------- null}
r -t 0.6173 -s 3 -d 1 -p cbr -e 100 -c 0 -i 8 -a 0 -x {8.0 0.0 8 ------- null}
+ -t 0.6173 -s 1 -d 0 -p cbr -e 100 -c 0 -i 8 -a 0 -x {8.0 0.0 8 ------- null}
- -t 0.6173 -s 1 -d 0 -p cbr -e 100 -c 0 -i 8 -a 0 -x {8.0 0.0 8 ------- null}
h -t 0.6173 -s 1 -d 0 -p cbr -e 100 -c 0 -i 8 -a 0 -x {8.0 0.0 -1 ------- null}
r -t 0.6177 -s 1 -d 0 -p cbr -e 100 -c 0 -i 7 -a 0 -x {8.0 0.0 7 ------- null}
+ -t 0.62 -s 8 -d 3 -p cbr -e 100 -c 0 -i 12 -a 0 -x {8.0 0.0 12 ------- null}
- -t 0.62 -s 8 -d 3 -p cbr -e 100 -c 0 -i 12 -a 0 -x {8.0 0.0 12 ------- null}
h -t 0.62 -s 8 -d 3 -p cbr -e 100 -c 0 -i 12 -a 0 -x {8.0 0.0 -1 ------- null}
r -t 0.6228 -s 8 -d 3 -p cbr -e 100 -c 0 -i 10 -a 0 -x {8.0 0.0 10 ------- null}
+ -t 0.6228 -s 3 -d 1 -p cbr -e 100 -c 0 -i 10 -a 0 -x {8.0 0.0 10 ------- null}
- -t 0.6228 -s 3 -d 1 -p cbr -e 100 -c 0 -i 10 -a 0 -x {8.0 0.0 10 ------- null}
h -t 0.6228 -s 3 -d 1 -p cbr -e 100 -c 0 -i 10 -a 0 -x {8.0 0.0 -1 ------- null}
r -t 0.6273 -s 3 -d 1 -p cbr -e 100 -c 0 -i 9 -a 0 -x {8.0 0.0 9 ------- null}
+ -t 0.6273 -s 1 -d 0 -p cbr -e 100 -c 0 -i 9 -a 0 -x {8.0 0.0 9 ------- null}
- -t 0.6273 -s 1 -d 0 -p cbr -e 100 -c 0 -i 9 -a 0 -x {8.0 0.0 9 ------- null}
h -t 0.6273 -s 1 -d 0 -p cbr -e 100 -c 0 -i 9 -a 0 -x {8.0 0.0 -1 ------- null}
r -t 0.6277 -s 1 -d 0 -p cbr -e 100 -c 0 -i 8 -a 0 -x {8.0 0.0 8 ------- null}
+ -t 0.63 -s 8 -d 3 -p cbr -e 100 -c 0 -i 13 -a 0 -x {8.0 0.0 13 ------- null}
- -t 0.63 -s 8 -d 3 -p cbr -e 100 -c 0 -i 13 -a 0 -x {8.0 0.0 13 ------- null}
h -t 0.63 -s 8 -d 3 -p cbr -e 100 -c 0 -i 13 -a 0 -x {8.0 0.0 -1 ------- null}
r -t 0.6328 -s 8 -d 3 -p cbr -e 100 -c 0 -i 11 -a 0 -x {8.0 0.0 11 ------- null}
+ -t 0.6328 -s 3 -d 1 -p cbr -e 100 -c 0 -i 11 -a 0 -x {8.0 0.0 11 ------- null}
- -t 0.6328 -s 3 -d 1 -p cbr -e 100 -c 0 -i 11 -a 0 -x {8.0 0.0 11 ------- null}
h -t 0.6328 -s 3 -d 1 -p cbr -e 100 -c 0 -i 11 -a 0 -x {8.0 0.0 -1 ------- null}
r -t 0.6373 -s 3 -d 1 -p cbr -e 100 -c 0 -i 10 -a 0 -x {8.0 0.0 10 ------- null}
+ -t 0.6373 -s 1 -d 0 -p cbr -e 100 -c 0 -i 10 -a 0 -x {8.0 0.0 10 ------- null}
- -t 0.6373 -s 1 -d 0 -p cbr -e 100 -c 0 -i 10 -a 0 -x {8.0 0.0 10 ------- null}
h -t 0.6373 -s 1 -d 0 -p cbr -e 100 -c 0 -i 10 -a 0 -x {8.0 0.0 -1 ------- null}
r -t 0.6377 -s 1 -d 0 -p cbr -e 100 -c 0 -i 9 -a 0 -x {8.0 0.0 9 ------- null}
+ -t 0.64 -s 8 -d 3 -p cbr -e 100 -c 0 -i 14 -a 0 -x {8.0 0.0 14 ------- null}
- -t 0.64 -s 8 -d 3 -p cbr -e 100 -c 0 -i 14 -a 0 -x {8.0 0.0 14 ------- null}
h -t 0.64 -s 8 -d 3 -p cbr -e 100 -c 0 -i 14 -a 0 -x {8.0 0.0 -1 ------- null}
r -t 0.6428 -s 8 -d 3 -p cbr -e 100 -c 0 -i 12 -a 0 -x {8.0 0.0 12 ------- null}
+ -t 0.6428 -s 3 -d 1 -p cbr -e 100 -c 0 -i 12 -a 0 -x {8.0 0.0 12 ------- null}
- -t 0.6428 -s 3 -d 1 -p cbr -e 100 -c 0 -i 12 -a 0 -x {8.0 0.0 12 ------- null}
h -t 0.6428 -s 3 -d 1 -p cbr -e 100 -c 0 -i 12 -a 0 -x {8.0 0.0 -1 ------- null}
r -t 0.6473 -s 3 -d 1 -p cbr -e 100 -c 0 -i 11 -a 0 -x {8.0 0.0 11 ------- null}
+ -t 0.6473 -s 1 -d 0 -p cbr -e 100 -c 0 -i 11 -a 0 -x {8.0 0.0 11 ------- null}
- -t 0.6473 -s 1 -d 0 -p cbr -e 100 -c 0 -i 11 -a 0 -x {8.0 0.0 11 ------- null}
h -t 0.6473 -s 1 -d 0 -p cbr -e 100 -c 0 -i 11 -a 0 -x {8.0 0.0 -1 ------- null}
r -t 0.6477 -s 1 -d 0 -p cbr -e 100 -c 0 -i 10 -a 0 -x {8.0 0.0 10 ------- null}
+ -t 0.65 -s 8 -d 3 -p cbr -e 100 -c 0 -i 15 -a 0 -x {8.0 0.0 15 ------- null}
- -t 0.65 -s 8 -d 3 -p cbr -e 100 -c 0 -i 15 -a 0 -x {8.0 0.0 15 ------- null}
h -t 0.65 -s 8 -d 3 -p cbr -e 100 -c 0 -i 15 -a 0 -x {8.0 0.0 -1 ------- null}
r -t 0.6528 -s 8 -d 3 -p cbr -e 100 -c 0 -i 13 -a 0 -x {8.0 0.0 13 ------- null}
+ -t 0.6528 -s 3 -d 1 -p cbr -e 100 -c 0 -i 13 -a 0 -x {8.0 0.0 13 ------- null}
- -t 0.6528 -s 3 -d 1 -p cbr -e 100 -c 0 -i 13 -a 0 -x {8.0 0.0 13 ------- null}
h -t 0.6528 -s 3 -d 1 -p cbr -e 100 -c 0 -i 13 -a 0 -x {8.0 0.0 -1 ------- null}
r -t 0.6573 -s 3 -d 1 -p cbr -e 100 -c 0 -i 12 -a 0 -x {8.0 0.0 12 ------- null}
+ -t 0.6573 -s 1 -d 0 -p cbr -e 100 -c 0 -i 12 -a 0 -x {8.0 0.0 12 ------- null}
- -t 0.6573 -s 1 -d 0 -p cbr -e 100 -c 0 -i 12 -a 0 -x {8.0 0.0 12 ------- null}
h -t 0.6573 -s 1 -d 0 -p cbr -e 100 -c 0 -i 12 -a 0 -x {8.0 0.0 -1 ------- null}
r -t 0.6577 -s 1 -d 0 -p cbr -e 100 -c 0 -i 11 -a 0 -x {8.0 0.0 11 ------- null}
+ -t 0.66 -s 8 -d 3 -p cbr -e 100 -c 0 -i 16 -a 0 -x {8.0 0.0 16 ------- null}
- -t 0.66 -s 8 -d 3 -p cbr -e 100 -c 0 -i 16 -a 0 -x {8.0 0.0 16 ------- null}
h -t 0.66 -s 8 -d 3 -p cbr -e 100 -c 0 -i 16 -a 0 -x {8.0 0.0 -1 ------- null}
r -t 0.6628 -s 8 -d 3 -p cbr -e 100 -c 0 -i 14 -a 0 -x {8.0 0.0 14 ------- null}
+ -t 0.6628 -s 3 -d 1 -p cbr -e 100 -c 0 -i 14 -a 0 -x {8.0 0.0 14 ------- null}
- -t 0.6628 -s 3 -d 1 -p cbr -e 100 -c 0 -i 14 -a 0 -x {8.0 0.0 14 ------- null}
h -t 0.6628 -s 3 -d 1 -p cbr -e 100 -c 0 -i 14 -a 0 -x {8.0 0.0 -1 ------- null}
r -t 0.6673 -s 3 -d 1 -p cbr -e 100 -c 0 -i 13 -a 0 -x {8.0 0.0 13 ------- null}
+ -t 0.6673 -s 1 -d 0 -p cbr -e 100 -c 0 -i 13 -a 0 -x {8.0 0.0 13 ------- null}
- -t 0.6673 -s 1 -d 0 -p cbr -e 100 -c 0 -i 13 -a 0 -x {8.0 0.0 13 ------- null}
h -t 0.6673 -s 1 -d 0 -p cbr -e 100 -c 0 -i 13 -a 0 -x {8.0 0.0 -1 ------- null}
r -t 0.6677 -s 1 -d 0 -p cbr -e 100 -c 0 -i 12 -a 0 -x {8.0 0.0 12 ------- null}
+ -t 0.67 -s 8 -d 3 -p cbr -e 100 -c 0 -i 17 -a 0 -x {8.0 0.0 17 ------- null}
- -t 0.67 -s 8 -d 3 -p cbr -e 100 -c 0 -i 17 -a 0 -x {8.0 0.0 17 ------- null}
h -t 0.67 -s 8 -d 3 -p cbr -e 100 -c 0 -i 17 -a 0 -x {8.0 0.0 -1 ------- null}
r -t 0.6728 -s 8 -d 3 -p cbr -e 100 -c 0 -i 15 -a 0 -x {8.0 0.0 15 ------- null}
+ -t 0.6728 -s 3 -d 1 -p cbr -e 100 -c 0 -i 15 -a 0 -x {8.0 0.0 15 ------- null}
- -t 0.6728 -s 3 -d 1 -p cbr -e 100 -c 0 -i 15 -a 0 -x {8.0 0.0 15 ------- null}
h -t 0.6728 -s 3 -d 1 -p cbr -e 100 -c 0 -i 15 -a 0 -x {8.0 0.0 -1 ------- null}
r -t 0.6773 -s 3 -d 1 -p cbr -e 100 -c 0 -i 14 -a 0 -x {8.0 0.0 14 ------- null}
+ -t 0.6773 -s 1 -d 0 -p cbr -e 100 -c 0 -i 14 -a 0 -x {8.0 0.0 14 ------- null}
- -t 0.6773 -s 1 -d 0 -p cbr -e 100 -c 0 -i 14 -a 0 -x {8.0 0.0 14 ------- null}
h -t 0.6773 -s 1 -d 0 -p cbr -e 100 -c 0 -i 14 -a 0 -x {8.0 0.0 -1 ------- null}
r -t 0.6777 -s 1 -d 0 -p cbr -e 100 -c 0 -i 13 -a 0 -x {8.0 0.0 13 ------- null}
+ -t 0.68 -s 8 -d 3 -p cbr -e 100 -c 0 -i 18 -a 0 -x {8.0 0.0 18 ------- null}
- -t 0.68 -s 8 -d 3 -p cbr -e 100 -c 0 -i 18 -a 0 -x {8.0 0.0 18 ------- null}
h -t 0.68 -s 8 -d 3 -p cbr -e 100 -c 0 -i 18 -a 0 -x {8.0 0.0 -1 ------- null}
r -t 0.6828 -s 8 -d 3 -p cbr -e 100 -c 0 -i 16 -a 0 -x {8.0 0.0 16 ------- null}
+ -t 0.6828 -s 3 -d 1 -p cbr -e 100 -c 0 -i 16 -a 0 -x {8.0 0.0 16 ------- null}
- -t 0.6828 -s 3 -d 1 -p cbr -e 100 -c 0 -i 16 -a 0 -x {8.0 0.0 16 ------- null}
h -t 0.6828 -s 3 -d 1 -p cbr -e 100 -c 0 -i 16 -a 0 -x {8.0 0.0 -1 ------- null}
r -t 0.6873 -s 3 -d 1 -p cbr -e 100 -c 0 -i 15 -a 0 -x {8.0 0.0 15 ------- null}
+ -t 0.6873 -s 1 -d 0 -p cbr -e 100 -c 0 -i 15 -a 0 -x {8.0 0.0 15 ------- null}
- -t 0.6873 -s 1 -d 0 -p cbr -e 100 -c 0 -i 15 -a 0 -x {8.0 0.0 15 ------- null}
h -t 0.6873 -s 1 -d 0 -p cbr -e 100 -c 0 -i 15 -a 0 -x {8.0 0.0 -1 ------- null}
r -t 0.6877 -s 1 -d 0 -p cbr -e 100 -c 0 -i 14 -a 0 -x {8.0 0.0 14 ------- null}
+ -t 0.69 -s 8 -d 3 -p cbr -e 100 -c 0 -i 19 -a 0 -x {8.0 0.0 19 ------- null}
- -t 0.69 -s 8 -d 3 -p cbr -e 100 -c 0 -i 19 -a 0 -x {8.0 0.0 19 ------- null}
h -t 0.69 -s 8 -d 3 -p cbr -e 100 -c 0 -i 19 -a 0 -x {8.0 0.0 -1 ------- null}
r -t 0.6928 -s 8 -d 3 -p cbr -e 100 -c 0 -i 17 -a 0 -x {8.0 0.0 17 ------- null}
+ -t 0.6928 -s 3 -d 1 -p cbr -e 100 -c 0 -i 17 -a 0 -x {8.0 0.0 17 ------- null}
- -t 0.6928 -s 3 -d 1 -p cbr -e 100 -c 0 -i 17 -a 0 -x {8.0 0.0 17 ------- null}
h -t 0.6928 -s 3 -d 1 -p cbr -e 100 -c 0 -i 17 -a 0 -x {8.0 0.0 -1 ------- null}
r -t 0.6973 -s 3 -d 1 -p cbr -e 100 -c 0 -i 16 -a 0 -x {8.0 0.0 16 ------- null}
+ -t 0.6973 -s 1 -d 0 -p cbr -e 100 -c 0 -i 16 -a 0 -x {8.0 0.0 16 ------- null}
- -t 0.6973 -s 1 -d 0 -p cbr -e 100 -c 0 -i 16 -a 0 -x {8.0 0.0 16 ------- null}
h -t 0.6973 -s 1 -d 0 -p cbr -e 100 -c 0 -i 16 -a 0 -x {8.0 0.0 -1 ------- null}
r -t 0.6977 -s 1 -d 0 -p cbr -e 100 -c 0 -i 15 -a 0 -x {8.0 0.0 15 ------- null}
+ -t 0.7 -s 8 -d 3 -p cbr -e 100 -c 0 -i 20 -a 0 -x {8.0 0.0 20 ------- null}
- -t 0.7 -s 8 -d 3 -p cbr -e 100 -c 0 -i 20 -a 0 -x {8.0 0.0 20 ------- null}
h -t 0.7 -s 8 -d 3 -p cbr -e 100 -c 0 -i 20 -a 0 -x {8.0 0.0 -1 ------- null}
r -t 0.7028 -s 8 -d 3 -p cbr -e 100 -c 0 -i 18 -a 0 -x {8.0 0.0 18 ------- null}
+ -t 0.7028 -s 3 -d 1 -p cbr -e 100 -c 0 -i 18 -a 0 -x {8.0 0.0 18 ------- null}
- -t 0.7028 -s 3 -d 1 -p cbr -e 100 -c 0 -i 18 -a 0 -x {8.0 0.0 18 ------- null}
h -t 0.7028 -s 3 -d 1 -p cbr -e 100 -c 0 -i 18 -a 0 -x {8.0 0.0 -1 ------- null}
r -t 0.7073 -s 3 -d 1 -p cbr -e 100 -c 0 -i 17 -a 0 -x {8.0 0.0 17 ------- null}
+ -t 0.7073 -s 1 -d 0 -p cbr -e 100 -c 0 -i 17 -a 0 -x {8.0 0.0 17 ------- null}
- -t 0.7073 -s 1 -d 0 -p cbr -e 100 -c 0 -i 17 -a 0 -x {8.0 0.0 17 ------- null}
h -t 0.7073 -s 1 -d 0 -p cbr -e 100 -c 0 -i 17 -a 0 -x {8.0 0.0 -1 ------- null}
r -t 0.7077 -s 1 -d 0 -p cbr -e 100 -c 0 -i 16 -a 0 -x {8.0 0.0 16 ------- null}
+ -t 0.71 -s 8 -d 3 -p cbr -e 100 -c 0 -i 21 -a 0 -x {8.0 0.0 21 ------- null}
- -t 0.71 -s 8 -d 3 -p cbr -e 100 -c 0 -i 21 -a 0 -x {8.0 0.0 21 ------- null}
h -t 0.71 -s 8 -d 3 -p cbr -e 100 -c 0 -i 21 -a 0 -x {8.0 0.0 -1 ------- null}
r -t 0.7128 -s 8 -d 3 -p cbr -e 100 -c 0 -i 19 -a 0 -x {8.0 0.0 19 ------- null}
+ -t 0.7128 -s 3 -d 1 -p cbr -e 100 -c 0 -i 19 -a 0 -x {8.0 0.0 19 ------- null}
- -t 0.7128 -s 3 -d 1 -p cbr -e 100 -c 0 -i 19 -a 0 -x {8.0 0.0 19 ------- null}
h -t 0.7128 -s 3 -d 1 -p cbr -e 100 -c 0 -i 19 -a 0 -x {8.0 0.0 -1 ------- null}
r -t 0.7173 -s 3 -d 1 -p cbr -e 100 -c 0 -i 18 -a 0 -x {8.0 0.0 18 ------- null}
+ -t 0.7173 -s 1 -d 0 -p cbr -e 100 -c 0 -i 18 -a 0 -x {8.0 0.0 18 ------- null}
- -t 0.7173 -s 1 -d 0 -p cbr -e 100 -c 0 -i 18 -a 0 -x {8.0 0.0 18 ------- null}
h -t 0.7173 -s 1 -d 0 -p cbr -e 100 -c 0 -i 18 -a 0 -x {8.0 0.0 -1 ------- null}
r -t 0.7177 -s 1 -d 0 -p cbr -e 100 -c 0 -i 17 -a 0 -x {8.0 0.0 17 ------- null}
+ -t 0.72 -s 8 -d 3 -p cbr -e 100 -c 0 -i 22 -a 0 -x {8.0 0.0 22 ------- null}
- -t 0.72 -s 8 -d 3 -p cbr -e 100 -c 0 -i 22 -a 0 -x {8.0 0.0 22 ------- null}
h -t 0.72 -s 8 -d 3 -p cbr -e 100 -c 0 -i 22 -a 0 -x {8.0 0.0 -1 ------- null}
r -t 0.7228 -s 8 -d 3 -p cbr -e 100 -c 0 -i 20 -a 0 -x {8.0 0.0 20 ------- null}
+ -t 0.7228 -s 3 -d 1 -p cbr -e 100 -c 0 -i 20 -a 0 -x {8.0 0.0 20 ------- null}
- -t 0.7228 -s 3 -d 1 -p cbr -e 100 -c 0 -i 20 -a 0 -x {8.0 0.0 20 ------- null}
h -t 0.7228 -s 3 -d 1 -p cbr -e 100 -c 0 -i 20 -a 0 -x {8.0 0.0 -1 ------- null}
r -t 0.7273 -s 3 -d 1 -p cbr -e 100 -c 0 -i 19 -a 0 -x {8.0 0.0 19 ------- null}
+ -t 0.7273 -s 1 -d 0 -p cbr -e 100 -c 0 -i 19 -a 0 -x {8.0 0.0 19 ------- null}
- -t 0.7273 -s 1 -d 0 -p cbr -e 100 -c 0 -i 19 -a 0 -x {8.0 0.0 19 ------- null}
h -t 0.7273 -s 1 -d 0 -p cbr -e 100 -c 0 -i 19 -a 0 -x {8.0 0.0 -1 ------- null}
r -t 0.7277 -s 1 -d 0 -p cbr -e 100 -c 0 -i 18 -a 0 -x {8.0 0.0 18 ------- null}
+ -t 0.73 -s 8 -d 3 -p cbr -e 100 -c 0 -i 23 -a 0 -x {8.0 0.0 23 ------- null}
- -t 0.73 -s 8 -d 3 -p cbr -e 100 -c 0 -i 23 -a 0 -x {8.0 0.0 23 ------- null}
h -t 0.73 -s 8 -d 3 -p cbr -e 100 -c 0 -i 23 -a 0 -x {8.0 0.0 -1 ------- null}
r -t 0.7328 -s 8 -d 3 -p cbr -e 100 -c 0 -i 21 -a 0 -x {8.0 0.0 21 ------- null}
+ -t 0.7328 -s 3 -d 1 -p cbr -e 100 -c 0 -i 21 -a 0 -x {8.0 0.0 21 ------- null}
- -t 0.7328 -s 3 -d 1 -p cbr -e 100 -c 0 -i 21 -a 0 -x {8.0 0.0 21 ------- null}
h -t 0.7328 -s 3 -d 1 -p cbr -e 100 -c 0 -i 21 -a 0 -x {8.0 0.0 -1 ------- null}
r -t 0.7373 -s 3 -d 1 -p cbr -e 100 -c 0 -i 20 -a 0 -x {8.0 0.0 20 ------- null}
+ -t 0.7373 -s 1 -d 0 -p cbr -e 100 -c 0 -i 20 -a 0 -x {8.0 0.0 20 ------- null}
- -t 0.7373 -s 1 -d 0 -p cbr -e 100 -c 0 -i 20 -a 0 -x {8.0 0.0 20 ------- null}
h -t 0.7373 -s 1 -d 0 -p cbr -e 100 -c 0 -i 20 -a 0 -x {8.0 0.0 -1 ------- null}
r -t 0.7377 -s 1 -d 0 -p cbr -e 100 -c 0 -i 19 -a 0 -x {8.0 0.0 19 ------- null}
+ -t 0.74 -s 8 -d 3 -p cbr -e 100 -c 0 -i 24 -a 0 -x {8.0 0.0 24 ------- null}
- -t 0.74 -s 8 -d 3 -p cbr -e 100 -c 0 -i 24 -a 0 -x {8.0 0.0 24 ------- null}
h -t 0.74 -s 8 -d 3 -p cbr -e 100 -c 0 -i 24 -a 0 -x {8.0 0.0 -1 ------- null}
r -t 0.7428 -s 8 -d 3 -p cbr -e 100 -c 0 -i 22 -a 0 -x {8.0 0.0 22 ------- null}
+ -t 0.7428 -s 3 -d 1 -p cbr -e 100 -c 0 -i 22 -a 0 -x {8.0 0.0 22 ------- null}
- -t 0.7428 -s 3 -d 1 -p cbr -e 100 -c 0 -i 22 -a 0 -x {8.0 0.0 22 ------- null}
h -t 0.7428 -s 3 -d 1 -p cbr -e 100 -c 0 -i 22 -a 0 -x {8.0 0.0 -1 ------- null}
r -t 0.7473 -s 3 -d 1 -p cbr -e 100 -c 0 -i 21 -a 0 -x {8.0 0.0 21 ------- null}
+ -t 0.7473 -s 1 -d 0 -p cbr -e 100 -c 0 -i 21 -a 0 -x {8.0 0.0 21 ------- null}
- -t 0.7473 -s 1 -d 0 -p cbr -e 100 -c 0 -i 21 -a 0 -x {8.0 0.0 21 ------- null}
h -t 0.7473 -s 1 -d 0 -p cbr -e 100 -c 0 -i 21 -a 0 -x {8.0 0.0 -1 ------- null}
r -t 0.7477 -s 1 -d 0 -p cbr -e 100 -c 0 -i 20 -a 0 -x {8.0 0.0 20 ------- null}
+ -t 0.75 -s 8 -d 3 -p cbr -e 100 -c 0 -i 25 -a 0 -x {8.0 0.0 25 ------- null}
- -t 0.75 -s 8 -d 3 -p cbr -e 100 -c 0 -i 25 -a 0 -x {8.0 0.0 25 ------- null}
h -t 0.75 -s 8 -d 3 -p cbr -e 100 -c 0 -i 25 -a 0 -x {8.0 0.0 -1 ------- null}
r -t 0.7528 -s 8 -d 3 -p cbr -e 100 -c 0 -i 23 -a 0 -x {8.0 0.0 23 ------- null}
+ -t 0.7528 -s 3 -d 1 -p cbr -e 100 -c 0 -i 23 -a 0 -x {8.0 0.0 23 ------- null}
- -t 0.7528 -s 3 -d 1 -p cbr -e 100 -c 0 -i 23 -a 0 -x {8.0 0.0 23 ------- null}
h -t 0.7528 -s 3 -d 1 -p cbr -e 100 -c 0 -i 23 -a 0 -x {8.0 0.0 -1 ------- null}
r -t 0.7573 -s 3 -d 1 -p cbr -e 100 -c 0 -i 22 -a 0 -x {8.0 0.0 22 ------- null}
+ -t 0.7573 -s 1 -d 0 -p cbr -e 100 -c 0 -i 22 -a 0 -x {8.0 0.0 22 ------- null}
- -t 0.7573 -s 1 -d 0 -p cbr -e 100 -c 0 -i 22 -a 0 -x {8.0 0.0 22 ------- null}
h -t 0.7573 -s 1 -d 0 -p cbr -e 100 -c 0 -i 22 -a 0 -x {8.0 0.0 -1 ------- null}
r -t 0.7577 -s 1 -d 0 -p cbr -e 100 -c 0 -i 21 -a 0 -x {8.0 0.0 21 ------- null}
+ -t 0.76 -s 8 -d 3 -p cbr -e 100 -c 0 -i 26 -a 0 -x {8.0 0.0 26 ------- null}
- -t 0.76 -s 8 -d 3 -p cbr -e 100 -c 0 -i 26 -a 0 -x {8.0 0.0 26 ------- null}
h -t 0.76 -s 8 -d 3 -p cbr -e 100 -c 0 -i 26 -a 0 -x {8.0 0.0 -1 ------- null}
r -t 0.7628 -s 8 -d 3 -p cbr -e 100 -c 0 -i 24 -a 0 -x {8.0 0.0 24 ------- null}
+ -t 0.7628 -s 3 -d 1 -p cbr -e 100 -c 0 -i 24 -a 0 -x {8.0 0.0 24 ------- null}
- -t 0.7628 -s 3 -d 1 -p cbr -e 100 -c 0 -i 24 -a 0 -x {8.0 0.0 24 ------- null}
h -t 0.7628 -s 3 -d 1 -p cbr -e 100 -c 0 -i 24 -a 0 -x {8.0 0.0 -1 ------- null}
r -t 0.7673 -s 3 -d 1 -p cbr -e 100 -c 0 -i 23 -a 0 -x {8.0 0.0 23 ------- null}
+ -t 0.7673 -s 1 -d 0 -p cbr -e 100 -c 0 -i 23 -a 0 -x {8.0 0.0 23 ------- null}
- -t 0.7673 -s 1 -d 0 -p cbr -e 100 -c 0 -i 23 -a 0 -x {8.0 0.0 23 ------- null}
h -t 0.7673 -s 1 -d 0 -p cbr -e 100 -c 0 -i 23 -a 0 -x {8.0 0.0 -1 ------- null}
r -t 0.7677 -s 1 -d 0 -p cbr -e 100 -c 0 -i 22 -a 0 -x {8.0 0.0 22 ------- null}
+ -t 0.77 -s 8 -d 3 -p cbr -e 100 -c 0 -i 27 -a 0 -x {8.0 0.0 27 ------- null}
- -t 0.77 -s 8 -d 3 -p cbr -e 100 -c 0 -i 27 -a 0 -x {8.0 0.0 27 ------- null}
h -t 0.77 -s 8 -d 3 -p cbr -e 100 -c 0 -i 27 -a 0 -x {8.0 0.0 -1 ------- null}
r -t 0.7728 -s 8 -d 3 -p cbr -e 100 -c 0 -i 25 -a 0 -x {8.0 0.0 25 ------- null}
+ -t 0.7728 -s 3 -d 1 -p cbr -e 100 -c 0 -i 25 -a 0 -x {8.0 0.0 25 ------- null}
- -t 0.7728 -s 3 -d 1 -p cbr -e 100 -c 0 -i 25 -a 0 -x {8.0 0.0 25 ------- null}
h -t 0.7728 -s 3 -d 1 -p cbr -e 100 -c 0 -i 25 -a 0 -x {8.0 0.0 -1 ------- null}
r -t 0.7773 -s 3 -d 1 -p cbr -e 100 -c 0 -i 24 -a 0 -x {8.0 0.0 24 ------- null}
+ -t 0.7773 -s 1 -d 0 -p cbr -e 100 -c 0 -i 24 -a 0 -x {8.0 0.0 24 ------- null}
- -t 0.7773 -s 1 -d 0 -p cbr -e 100 -c 0 -i 24 -a 0 -x {8.0 0.0 24 ------- null}
h -t 0.7773 -s 1 -d 0 -p cbr -e 100 -c 0 -i 24 -a 0 -x {8.0 0.0 -1 ------- null}
r -t 0.7777 -s 1 -d 0 -p cbr -e 100 -c 0 -i 23 -a 0 -x {8.0 0.0 23 ------- null}
+ -t 0.78 -s 8 -d 3 -p cbr -e 100 -c 0 -i 28 -a 0 -x {8.0 0.0 28 ------- null}
- -t 0.78 -s 8 -d 3 -p cbr -e 100 -c 0 -i 28 -a 0 -x {8.0 0.0 28 ------- null}
h -t 0.78 -s 8 -d 3 -p cbr -e 100 -c 0 -i 28 -a 0 -x {8.0 0.0 -1 ------- null}
r -t 0.7828 -s 8 -d 3 -p cbr -e 100 -c 0 -i 26 -a 0 -x {8.0 0.0 26 ------- null}
+ -t 0.7828 -s 3 -d 1 -p cbr -e 100 -c 0 -i 26 -a 0 -x {8.0 0.0 26 ------- null}
- -t 0.7828 -s 3 -d 1 -p cbr -e 100 -c 0 -i 26 -a 0 -x {8.0 0.0 26 ------- null}
h -t 0.7828 -s 3 -d 1 -p cbr -e 100 -c 0 -i 26 -a 0 -x {8.0 0.0 -1 ------- null}
r -t 0.7873 -s 3 -d 1 -p cbr -e 100 -c 0 -i 25 -a 0 -x {8.0 0.0 25 ------- null}
+ -t 0.7873 -s 1 -d 0 -p cbr -e 100 -c 0 -i 25 -a 0 -x {8.0 0.0 25 ------- null}
- -t 0.7873 -s 1 -d 0 -p cbr -e 100 -c 0 -i 25 -a 0 -x {8.0 0.0 25 ------- null}
h -t 0.7873 -s 1 -d 0 -p cbr -e 100 -c 0 -i 25 -a 0 -x {8.0 0.0 -1 ------- null}
r -t 0.7877 -s 1 -d 0 -p cbr -e 100 -c 0 -i 24 -a 0 -x {8.0 0.0 24 ------- null}
+ -t 0.79 -s 8 -d 3 -p cbr -e 100 -c 0 -i 29 -a 0 -x {8.0 0.0 29 ------- null}
- -t 0.79 -s 8 -d 3 -p cbr -e 100 -c 0 -i 29 -a 0 -x {8.0 0.0 29 ------- null}
h -t 0.79 -s 8 -d 3 -p cbr -e 100 -c 0 -i 29 -a 0 -x {8.0 0.0 -1 ------- null}
r -t 0.7928 -s 8 -d 3 -p cbr -e 100 -c 0 -i 27 -a 0 -x {8.0 0.0 27 ------- null}
+ -t 0.7928 -s 3 -d 1 -p cbr -e 100 -c 0 -i 27 -a 0 -x {8.0 0.0 27 ------- null}
- -t 0.7928 -s 3 -d 1 -p cbr -e 100 -c 0 -i 27 -a 0 -x {8.0 0.0 27 ------- null}
h -t 0.7928 -s 3 -d 1 -p cbr -e 100 -c 0 -i 27 -a 0 -x {8.0 0.0 -1 ------- null}
r -t 0.7973 -s 3 -d 1 -p cbr -e 100 -c 0 -i 26 -a 0 -x {8.0 0.0 26 ------- null}
+ -t 0.7973 -s 1 -d 0 -p cbr -e 100 -c 0 -i 26 -a 0 -x {8.0 0.0 26 ------- null}
- -t 0.7973 -s 1 -d 0 -p cbr -e 100 -c 0 -i 26 -a 0 -x {8.0 0.0 26 ------- null}
h -t 0.7973 -s 1 -d 0 -p cbr -e 100 -c 0 -i 26 -a 0 -x {8.0 0.0 -1 ------- null}
r -t 0.7977 -s 1 -d 0 -p cbr -e 100 -c 0 -i 25 -a 0 -x {8.0 0.0 25 ------- null}
+ -t 0.8 -s 8 -d 3 -p cbr -e 100 -c 0 -i 30 -a 0 -x {8.0 0.0 30 ------- null}
- -t 0.8 -s 8 -d 3 -p cbr -e 100 -c 0 -i 30 -a 0 -x {8.0 0.0 30 ------- null}
h -t 0.8 -s 8 -d 3 -p cbr -e 100 -c 0 -i 30 -a 0 -x {8.0 0.0 -1 ------- null}
r -t 0.8028 -s 8 -d 3 -p cbr -e 100 -c 0 -i 28 -a 0 -x {8.0 0.0 28 ------- null}
+ -t 0.8028 -s 3 -d 1 -p cbr -e 100 -c 0 -i 28 -a 0 -x {8.0 0.0 28 ------- null}
- -t 0.8028 -s 3 -d 1 -p cbr -e 100 -c 0 -i 28 -a 0 -x {8.0 0.0 28 ------- null}
h -t 0.8028 -s 3 -d 1 -p cbr -e 100 -c 0 -i 28 -a 0 -x {8.0 0.0 -1 ------- null}
r -t 0.8073 -s 3 -d 1 -p cbr -e 100 -c 0 -i 27 -a 0 -x {8.0 0.0 27 ------- null}
+ -t 0.8073 -s 1 -d 0 -p cbr -e 100 -c 0 -i 27 -a 0 -x {8.0 0.0 27 ------- null}
- -t 0.8073 -s 1 -d 0 -p cbr -e 100 -c 0 -i 27 -a 0 -x {8.0 0.0 27 ------- null}
h -t 0.8073 -s 1 -d 0 -p cbr -e 100 -c 0 -i 27 -a 0 -x {8.0 0.0 -1 ------- null}
r -t 0.8077 -s 1 -d 0 -p cbr -e 100 -c 0 -i 26 -a 0 -x {8.0 0.0 26 ------- null}
+ -t 0.81 -s 8 -d 3 -p cbr -e 100 -c 0 -i 31 -a 0 -x {8.0 0.0 31 ------- null}
- -t 0.81 -s 8 -d 3 -p cbr -e 100 -c 0 -i 31 -a 0 -x {8.0 0.0 31 ------- null}
h -t 0.81 -s 8 -d 3 -p cbr -e 100 -c 0 -i 31 -a 0 -x {8.0 0.0 -1 ------- null}
r -t 0.8128 -s 8 -d 3 -p cbr -e 100 -c 0 -i 29 -a 0 -x {8.0 0.0 29 ------- null}
+ -t 0.8128 -s 3 -d 1 -p cbr -e 100 -c 0 -i 29 -a 0 -x {8.0 0.0 29 ------- null}
- -t 0.8128 -s 3 -d 1 -p cbr -e 100 -c 0 -i 29 -a 0 -x {8.0 0.0 29 ------- null}
h -t 0.8128 -s 3 -d 1 -p cbr -e 100 -c 0 -i 29 -a 0 -x {8.0 0.0 -1 ------- null}
r -t 0.8173 -s 3 -d 1 -p cbr -e 100 -c 0 -i 28 -a 0 -x {8.0 0.0 28 ------- null}
+ -t 0.8173 -s 1 -d 0 -p cbr -e 100 -c 0 -i 28 -a 0 -x {8.0 0.0 28 ------- null}
- -t 0.8173 -s 1 -d 0 -p cbr -e 100 -c 0 -i 28 -a 0 -x {8.0 0.0 28 ------- null}
h -t 0.8173 -s 1 -d 0 -p cbr -e 100 -c 0 -i 28 -a 0 -x {8.0 0.0 -1 ------- null}
r -t 0.8177 -s 1 -d 0 -p cbr -e 100 -c 0 -i 27 -a 0 -x {8.0 0.0 27 ------- null}
+ -t 0.82 -s 8 -d 3 -p cbr -e 100 -c 0 -i 32 -a 0 -x {8.0 0.0 32 ------- null}
- -t 0.82 -s 8 -d 3 -p cbr -e 100 -c 0 -i 32 -a 0 -x {8.0 0.0 32 ------- null}