V -t * -v 1.0a5 -a 0
A -t * -n 1 -p 0 -o 0x7fffffff -c 30 -a 1
A -t * -h 1 -m 1073741823 -s 0
c -t * -i 1 -n Blue
c -t * -i 2 -n Red
n -t * -a 8 -s 8 -S UP -v circle -c black -i black
n -t * -a 4 -s 4 -S UP -v circle -c black -i black
n -t * -a 0 -s 0 -S UP -v circle -c black -i black
n -t * -a 5 -s 5 -S UP -v circle -c black -i black
n -t * -a 1 -s 1 -S UP -v circle -c black -i black
n -t * -a 6 -s 6 -S UP -v circle -c black -i black
n -t * -a 2 -s 2 -S UP -v circle -c black -i black
n -t * -a 7 -s 7 -S UP -v circle -c black -i black
n -t * -a 3 -s 3 -S UP -v circle -c black -i black
l -t * -s 1 -d 0 -S UP -r 2000000 -D 0.01 -c black
l -t * -s 2 -d 0 -S UP -r 2000000 -D 0.02 -c black
l -t * -s 3 -d 1 -S UP -r 2000000 -D 0.0141 -c black
l -t * -s 4 -d 1 -S UP -r 2000000 -D 0.01 -c black
l -t * -s 5 -d 2 -S UP -r 2000000 -D 0.01 -c black
l -t * -s 6 -d 2 -S UP -r 2000000 -D 0.028300000000000002 -c black
l -t * -s 7 -d 3 -S UP -r 2000000 -D 0.0141 -c black
l -t * -s 8 -d 3 -S UP -r 2000000 -D 0.022400000000000003 -c black
+ -t 0.5 -s 8 -d 3 -p cbr -e 500 -c 0 -i 0 -a 0 -x {8.0 0.0 0 ------- null}
- -t 0.5 -s 8 -d 3 -p cbr -e 500 -c 0 -i 0 -a 0 -x {8.0 0.0 0 ------- null}
h -t 0.5 -s 8 -d 3 -p cbr -e 500 -c 0 -i 0 -a 0 -x {8.0 0.0 -1 ------- null}
+ -t 0.505 -s 8 -d 3 -p cbr -e 500 -c 0 -i 1 -a 0 -x {8.0 0.0 1 ------- null}
- -t 0.505 -s 8 -d 3 -p cbr -e 500 -c 0 -i 1 -a 0 -x {8.0 0.0 1 ------- null}
h -t 0.505 -s 8 -d 3 -p cbr -e 500 -c 0 -i 1 -a 0 -x {8.0 0.0 -1 ------- null}
+ -t 0.51 -s 8 -d 3 -p cbr -e 500 -c 0 -i 2 -a 0 -x {8.0 0.0 2 ------- null}
- -t 0.51 -s 8 -d 3 -p cbr -e 500 -c 0 -i 2 -a 0 -x {8.0 0.0 2 ------- null}
h -t 0.51 -s 8 -d 3 -p cbr -e 500 -c 0 -i 2 -a 0 -x {8.0 0.0 -1 ------- null}
+ -t 0.515 -s 8 -d 3 -p cbr -e 500 -c 0 -i 3 -a 0 -x {8.0 0.0 3 ------- null}
- -t 0.515 -s 8 -d 3 -p cbr -e 500 -c 0 -i 3 -a 0 -x {8.0 0.0 3 ------- null}
h -t 0.515 -s 8 -d 3 -p cbr -e 500 -c 0 -i 3 -a 0 -x {8.0 0.0 -1 ------- null}
+ -t 0.52 -s 8 -d 3 -p cbr -e 500 -c 0 -i 4 -a 0 -x {8.0 0.0 4 ------- null}
- -t 0.52 -s 8 -d 3 -p cbr -e 500 -c 0 -i 4 -a 0 -x {8.0 0.0 4 ------- null}
h -t 0.52 -s 8 -d 3 -p cbr -e 500 -c 0 -i 4 -a 0 -x {8.0 0.0 -1 ------- null}
r -t 0.5244 -s 8 -d 3 -p cbr -e 500 -c 0 -i 0 -a 0 -x {8.0 0.0 0 ------- null}
+ -t 0.5244 -s 3 -d 1 -p cbr -e 500 -c 0 -i 0 -a 0 -x {8.0 0.0 0 ------- null}
- -t 0.5244 -s 3 -d 1 -p cbr -e 500 -c 0 -i 0 -a 0 -x {8.0 0.0 0 ------- null}
h -t 0.5244 -s 3 -d 1 -p cbr -e 500 -c 0 -i 0 -a 0 -x {8.0 0.0 -1 ------- null}
+ -t 0.525 -s 8 -d 3 -p cbr -e 500 -c 0 -i 5 -a 0 -x {8.0 0.0 5 ------- null}
- -t 0.525 -s 8 -d 3 -p cbr -e 500 -c 0 -i 5 -a 0 -x {8.0 0.0 5 ------- null}
h -t 0.525 -s 8 -d 3 -p cbr -e 500 -c 0 -i 5 -a 0 -x {8.0 0.0 -1 ------- null}
r -t 0.5294 -s 8 -d 3 -p cbr -e 500 -c 0 -i 1 -a 0 -x {8.0 0.0 1 ------- null}
+ -t 0.5294 -s 3 -d 1 -p cbr -e 500 -c 0 -i 1 -a 0 -x {8.0 0.0 1 ------- null}
- -t 0.5294 -s 3 -d 1 -p cbr -e 500 -c 0 -i 1 -a 0 -x {8.0 0.0 1 ------- null}
h -t 0.5294 -s 3 -d 1 -p cbr -e 500 -c 0 -i 1 -a 0 -x {8.0 0.0 -1 ------- null}
+ -t 0.53 -s 8 -d 3 -p cbr -e 500 -c 0 -i 6 -a 0 -x {8.0 0.0 6 ------- null}
- -t 0.53 -s 8 -d 3 -p cbr -e 500 -c 0 -i 6 -a 0 -x {8.0 0.0 6 ------- null}
h -t 0.53 -s 8 -d 3 -p cbr -e 500 -c 0 -i 6 -a 0 -x {8.0 0.0 -1 ------- null}
r -t 0.5344 -s 8 -d 3 -p cbr -e 500 -c 0 -i 2 -a 0 -x {8.0 0.0 2 ------- null}
+ -t 0.5344 -s 3 -d 1 -p cbr -e 500 -c 0 -i 2 -a 0 -x {8.0 0.0 2 ------- null}
- -t 0.5344 -s 3 -d 1 -p cbr -e 500 -c 0 -i 2 -a 0 -x {8.0 0.0 2 ------- null}
h -t 0.5344 -s 3 -d 1 -p cbr -e 500 -c 0 -i 2 -a 0 -x {8.0 0.0 -1 ------- null}
+ -t 0.535 -s 8 -d 3 -p cbr -e 500 -c 0 -i 7 -a 0 -x {8.0 0.0 7 ------- null}
- -t 0.535 -s 8 -d 3 -p cbr -e 500 -c 0 -i 7 -a 0 -x {8.0 0.0 7 ------- null}
h -t 0.535 -s 8 -d 3 -p cbr -e 500 -c 0 -i 7 -a 0 -x {8.0 0.0 -1 ------- null}
r -t 0.5394 -s 8 -d 3 -p cbr -e 500 -c 0 -i 3 -a 0 -x {8.0 0.0 3 ------- null}
+ -t 0.5394 -s 3 -d 1 -p cbr -e 500 -c 0 -i 3 -a 0 -x {8.0 0.0 3 ------- null}
- -t 0.5394 -s 3 -d 1 -p cbr -e 500 -c 0 -i 3 -a 0 -x {8.0 0.0 3 ------- null}
h -t 0.5394 -s 3 -d 1 -p cbr -e 500 -c 0 -i 3 -a 0 -x {8.0 0.0 -1 ------- null}
+ -t 0.54 -s 8 -d 3 -p cbr -e 500 -c 0 -i 8 -a 0 -x {8.0 0.0 8 ------- null}
- -t 0.54 -s 8 -d 3 -p cbr -e 500 -c 0 -i 8 -a 0 -x {8.0 0.0 8 ------- null}
h -t 0.54 -s 8 -d 3 -p cbr -e 500 -c 0 -i 8 -a 0 -x {8.0 0.0 -1 ------- null}
r -t 0.5405 -s 3 -d 1 -p cbr -e 500 -c 0 -i 0 -a 0 -x {8.0 0.0 0 ------- null}
+ -t 0.5405 -s 1 -d 0 -p cbr -e 500 -c 0 -i 0 -a 0 -x {8.0 0.0 0 ------- null}
- -t 0.5405 -s 1 -d 0 -p cbr -e 500 -c 0 -i 0 -a 0 -x {8.0 0.0 0 ------- null}
h -t 0.5405 -s 1 -d 0 -p cbr -e 500 -c 0 -i 0 -a 0 -x {8.0 0.0 -1 ------- null}
r -t 0.5444 -s 8 -d 3 -p cbr -e 500 -c 0 -i 4 -a 0 -x {8.0 0.0 4 ------- null}
+ -t 0.5444 -s 3 -d 1 -p cbr -e 500 -c 0 -i 4 -a 0 -x {8.0 0.0 4 ------- null}
- -t 0.5444 -s 3 -d 1 -p cbr -e 500 -c 0 -i 4 -a 0 -x {8.0 0.0 4 ------- null}
h -t 0.5444 -s 3 -d 1 -p cbr -e 500 -c 0 -i 4 -a 0 -x {8.0 0.0 -1 ------- null}
+ -t 0.545 -s 8 -d 3 -p cbr -e 500 -c 0 -i 9 -a 0 -x {8.0 0.0 9 ------- null}
- -t 0.545 -s 8 -d 3 -p cbr -e 500 -c 0 -i 9 -a 0 -x {8.0 0.0 9 ------- null}
h -t 0.545 -s 8 -d 3 -p cbr -e 500 -c 0 -i 9 -a 0 -x {8.0 0.0 -1 ------- null}
r -t 0.5455 -s 3 -d 1 -p cbr -e 500 -c 0 -i 1 -a 0 -x {8.0 0.0 1 ------- null}
+ -t 0.5455 -s 1 -d 0 -p cbr -e 500 -c 0 -i 1 -a 0 -x {8.0 0.0 1 ------- null}
- -t 0.5455 -s 1 -d 0 -p cbr -e 500 -c 0 -i 1 -a 0 -x {8.0 0.0 1 ------- null}
h -t 0.5455 -s 1 -d 0 -p cbr -e 500 -c 0 -i 1 -a 0 -x {8.0 0.0 -1 ------- null}
r -t 0.5494 -s 8 -d 3 -p cbr -e 500 -c 0 -i 5 -a 0 -x {8.0 0.0 5 ------- null}
+ -t 0.5494 -s 3 -d 1 -p cbr -e 500 -c 0 -i 5 -a 0 -x {8.0 0.0 5 ------- null}
- -t 0.5494 -s 3 -d 1 -p cbr -e 500 -c 0 -i 5 -a 0 -x {8.0 0.0 5 ------- null}
h -t 0.5494 -s 3 -d 1 -p cbr -e 500 -c 0 -i 5 -a 0 -x {8.0 0.0 -1 ------- null}
+ -t 0.55 -s 8 -d 3 -p cbr -e 500 -c 0 -i 10 -a 0 -x {8.0 0.0 10 ------- null}
- -t 0.55 -s 8 -d 3 -p cbr -e 500 -c 0 -i 10 -a 0 -x {8.0 0.0 10 ------- null}
h -t 0.55 -s 8 -d 3 -p cbr -e 500 -c 0 -i 10 -a 0 -x {8.0 0.0 -1 ------- null}
r -t 0.5505 -s 3 -d 1 -p cbr -e 500 -c 0 -i 2 -a 0 -x {8.0 0.0 2 ------- null}
+ -t 0.5505 -s 1 -d 0 -p cbr -e 500 -c 0 -i 2 -a 0 -x {8.0 0.0 2 ------- null}
- -t 0.5505 -s 1 -d 0 -p cbr -e 500 -c 0 -i 2 -a 0 -x {8.0 0.0 2 ------- null}
h -t 0.5505 -s 1 -d 0 -p cbr -e 500 -c 0 -i 2 -a 0 -x {8.0 0.0 -1 ------- null}
r -t 0.5525 -s 1 -d 0 -p cbr -e 500 -c 0 -i 0 -a 0 -x {8.0 0.0 0 ------- null}
r -t 0.5544 -s 8 -d 3 -p cbr -e 500 -c 0 -i 6 -a 0 -x {8.0 0.0 6 ------- null}
+ -t 0.5544 -s 3 -d 1 -p cbr -e 500 -c 0 -i 6 -a 0 -x {8.0 0.0 6 ------- null}
- -t 0.5544 -s 3 -d 1 -p cbr -e 500 -c 0 -i 6 -a 0 -x {8.0 0.0 6 ------- null}
h -t 0.5544 -s 3 -d 1 -p cbr -e 500 -c 0 -i 6 -a 0 -x {8.0 0.0 -1 ------- null}
+ -t 0.555 -s 8 -d 3 -p cbr -e 500 -c 0 -i 11 -a 0 -x {8.0 0.0 11 ------- null}
- -t 0.555 -s 8 -d 3 -p cbr -e 500 -c 0 -i 11 -a 0 -x {8.0 0.0 11 ------- null}
h -t 0.555 -s 8 -d 3 -p cbr -e 500 -c 0 -i 11 -a 0 -x {8.0 0.0 -1 ------- null}
r -t 0.5555 -s 3 -d 1 -p cbr -e 500 -c 0 -i 3 -a 0 -x {8.0 0.0 3 ------- null}
+ -t 0.5555 -s 1 -d 0 -p cbr -e 500 -c 0 -i 3 -a 0 -x {8.0 0.0 3 ------- null}
- -t 0.5555 -s 1 -d 0 -p cbr -e 500 -c 0 -i 3 -a 0 -x {8.0 0.0 3 ------- null}
h -t 0.5555 -s 1 -d 0 -p cbr -e 500 -c 0 -i 3 -a 0 -x {8.0 0.0 -1 ------- null}
r -t 0.5575 -s 1 -d 0 -p cbr -e 500 -c 0 -i 1 -a 0 -x {8.0 0.0 1 ------- null}
r -t 0.5594 -s 8 -d 3 -p cbr -e 500 -c 0 -i 7 -a 0 -x {8.0 0.0 7 ------- null}
+ -t 0.5594 -s 3 -d 1 -p cbr -e 500 -c 0 -i 7 -a 0 -x {8.0 0.0 7 ------- null}
- -t 0.5594 -s 3 -d 1 -p cbr -e 500 -c 0 -i 7 -a 0 -x {8.0 0.0 7 ------- null}
h -t 0.5594 -s 3 -d 1 -p cbr -e 500 -c 0 -i 7 -a 0 -x {8.0 0.0 -1 ------- null}
+ -t 0.56 -s 8 -d 3 -p cbr -e 500 -c 0 -i 12 -a 0 -x {8.0 0.0 12 ------- null}
- -t 0.56 -s 8 -d 3 -p cbr -e 500 -c 0 -i 12 -a 0 -x {8.0 0.0 12 ------- null}
h -t 0.56 -s 8 -d 3 -p cbr -e 500 -c 0 -i 12 -a 0 -x {8.0 0.0 -1 ------- null}
r -t 0.5605 -s 3 -d 1 -p cbr -e 500 -c 0 -i 4 -a 0 -x {8.0 0.0 4 ------- null}
+ -t 0.5605 -s 1 -d 0 -p cbr -e 500 -c 0 -i 4 -a 0 -x {8.0 0.0 4 ------- null}
- -t 0.5605 -s 1 -d 0 -p cbr -e 500 -c 0 -i 4 -a 0 -x {8.0 0.0 4 ------- null}
h -t 0.5605 -s 1 -d 0 -p cbr -e 500 -c 0 -i 4 -a 0 -x {8.0 0.0 -1 ------- null}
r -t 0.5625 -s 1 -d 0 -p cbr -e 500 -c 0 -i 2 -a 0 -x {8.0 0.0 2 ------- null}
r -t 0.5644 -s 8 -d 3 -p cbr -e 500 -c 0 -i 8 -a 0 -x {8.0 0.0 8 ------- null}
+ -t 0.5644 -s 3 -d 1 -p cbr -e 500 -c 0 -i 8 -a 0 -x {8.0 0.0 8 ------- null}
- -t 0.5644 -s 3 -d 1 -p cbr -e 500 -c 0 -i 8 -a 0 -x {8.0 0.0 8 ------- null}
h -t 0.5644 -s 3 -d 1 -p cbr -e 500 -c 0 -i 8 -a 0 -x {8.0 0.0 -1 ------- null}
+ -t 0.565 -s 8 -d 3 -p cbr -e 500 -c 0 -i 13 -a 0 -x {8.0 0.0 13 ------- null}
- -t 0.565 -s 8 -d 3 -p cbr -e 500 -c 0 -i 13 -a 0 -x {8.0 0.0 13 ------- null}
h -t 0.565 -s 8 -d 3 -p cbr -e 500 -c 0 -i 13 -a 0 -x {8.0 0.0 -1 ------- null}
r -t 0.5655 -s 3 -d 1 -p cbr -e 500 -c 0 -i 5 -a 0 -x {8.0 0.0 5 ------- null}
+ -t 0.5655 -s 1 -d 0 -p cbr -e 500 -c 0 -i 5 -a 0 -x {8.0 0.0 5 ------- null}
- -t 0.5655 -s 1 -d 0 -p cbr -e 500 -c 0 -i 5 -a 0 -x {8.0 0.0 5 ------- null}
h -t 0.5655 -s 1 -d 0 -p cbr -e 500 -c 0 -i 5 -a 0 -x {8.0 0.0 -1 ------- null}
r -t 0.5675 -s 1 -d 0 -p cbr -e 500 -c 0 -i 3 -a 0 -x {8.0 0.0 3 ------- null}
r -t 0.5694 -s 8 -d 3 -p cbr -e 500 -c 0 -i 9 -a 0 -x {8.0 0.0 9 ------- null}
+ -t 0.5694 -s 3 -d 1 -p cbr -e 500 -c 0 -i 9 -a 0 -x {8.0 0.0 9 ------- null}
- -t 0.5694 -s 3 -d 1 -p cbr -e 500 -c 0 -i 9 -a 0 -x {8.0 0.0 9 ------- null}
h -t 0.5694 -s 3 -d 1 -p cbr -e 500 -c 0 -i 9 -a 0 -x {8.0 0.0 -1 ------- null}
+ -t 0.57 -s 8 -d 3 -p cbr -e 500 -c 0 -i 14 -a 0 -x {8.0 0.0 14 ------- null}
- -t 0.57 -s 8 -d 3 -p cbr -e 500 -c 0 -i 14 -a 0 -x {8.0 0.0 14 ------- null}
h -t 0.57 -s 8 -d 3 -p cbr -e 500 -c 0 -i 14 -a 0 -x {8.0 0.0 -1 ------- null}
r -t 0.5705 -s 3 -d 1 -p cbr -e 500 -c 0 -i 6 -a 0 -x {8.0 0.0 6 ------- null}
+ -t 0.5705 -s 1 -d 0 -p cbr -e 500 -c 0 -i 6 -a 0 -x {8.0 0.0 6 ------- null}
- -t 0.5705 -s 1 -d 0 -p cbr -e 500 -c 0 -i 6 -a 0 -x {8.0 0.0 6 ------- null}
h -t 0.5705 -s 1 -d 0 -p cbr -e 500 -c 0 -i 6 -a 0 -x {8.0 0.0 -1 ------- null}
r -t 0.5725 -s 1 -d 0 -p cbr -e 500 -c 0 -i 4 -a 0 -x {8.0 0.0 4 ------- null}
r -t 0.5744 -s 8 -d 3 -p cbr -e 500 -c 0 -i 10 -a 0 -x {8.0 0.0 10 ------- null}
+ -t 0.5744 -s 3 -d 1 -p cbr -e 500 -c 0 -i 10 -a 0 -x {8.0 0.0 10 ------- null}
- -t 0.5744 -s 3 -d 1 -p cbr -e 500 -c 0 -i 10 -a 0 -x {8.0 0.0 10 ------- null}
h -t 0.5744 -s 3 -d 1 -p cbr -e 500 -c 0 -i 10 -a 0 -x {8.0 0.0 -1 ------- null}
+ -t 0.575 -s 8 -d 3 -p cbr -e 500 -c 0 -i 15 -a 0 -x {8.0 0.0 15 ------- null}
- -t 0.575 -s 8 -d 3 -p cbr -e 500 -c 0 -i 15 -a 0 -x {8.0 0.0 15 ------- null}
h -t 0.575 -s 8 -d 3 -p cbr -e 500 -c 0 -i 15 -a 0 -x {8.0 0.0 -1 ------- null}
r -t 0.5755 -s 3 -d 1 -p cbr -e 500 -c 0 -i 7 -a 0 -x {8.0 0.0 7 ------- null}
+ -t 0.5755 -s 1 -d 0 -p cbr -e 500 -c 0 -i 7 -a 0 -x {8.0 0.0 7 ------- null}
- -t 0.5755 -s 1 -d 0 -p cbr -e 500 -c 0 -i 7 -a 0 -x {8.0 0.0 7 ------- null}
h -t 0.5755 -s 1 -d 0 -p cbr -e 500 -c 0 -i 7 -a 0 -x {8.0 0.0 -1 ------- null}
r -t 0.5775 -s 1 -d 0 -p cbr -e 500 -c 0 -i 5 -a 0 -x {8.0 0.0 5 ------- null}
r -t 0.5794 -s 8 -d 3 -p cbr -e 500 -c 0 -i 11 -a 0 -x {8.0 0.0 11 ------- null}
+ -t 0.5794 -s 3 -d 1 -p cbr -e 500 -c 0 -i 11 -a 0 -x {8.0 0.0 11 ------- null}
- -t 0.5794 -s 3 -d 1 -p cbr -e 500 -c 0 -i 11 -a 0 -x {8.0 0.0 11 ------- null}
h -t 0.5794 -s 3 -d 1 -p cbr -e 500 -c 0 -i 11 -a 0 -x {8.0 0.0 -1 ------- null}
+ -t 0.58 -s 8 -d 3 -p cbr -e 500 -c 0 -i 16 -a 0 -x {8.0 0.0 16 ------- null}
- -t 0.58 -s 8 -d 3 -p cbr -e 500 -c 0 -i 16 -a 0 -x {8.0 0.0 16 ------- null}
h -t 0.58 -s 8 -d 3 -p cbr -e 500 -c 0 -i 16 -a 0 -x {8.0 0.0 -1 ------- null}
r -t 0.5805 -s 3 -d 1 -p cbr -e 500 -c 0 -i 8 -a 0 -x {8.0 0.0 8 ------- null}
+ -t 0.5805 -s 1 -d 0 -p cbr -e 500 -c 0 -i 8 -a 0 -x {8.0 0.0 8 ------- null}
- -t 0.5805 -s 1 -d 0 -p cbr -e 500 -c 0 -i 8 -a 0 -x {8.0 0.0 8 ------- null}
h -t 0.5805 -s 1 -d 0 -p cbr -e 500 -c 0 -i 8 -a 0 -x {8.0 0.0 -1 ------- null}
r -t 0.5825 -s 1 -d 0 -p cbr -e 500 -c 0 -i 6 -a 0 -x {8.0 0.0 6 ------- null}
r -t 0.5844 -s 8 -d 3 -p cbr -e 500 -c 0 -i 12 -a 0 -x {8.0 0.0 12 ------- null}
+ -t 0.5844 -s 3 -d 1 -p cbr -e 500 -c 0 -i 12 -a 0 -x {8.0 0.0 12 ------- null}
- -t 0.5844 -s 3 -d 1 -p cbr -e 500 -c 0 -i 12 -a 0 -x {8.0 0.0 12 ------- null}
h -t 0.5844 -s 3 -d 1 -p cbr -e 500 -c 0 -i 12 -a 0 -x {8.0 0.0 -1 ------- null}
+ -t 0.585 -s 8 -d 3 -p cbr -e 500 -c 0 -i 17 -a 0 -x {8.0 0.0 17 ------- null}
- -t 0.585 -s 8 -d 3 -p cbr -e 500 -c 0 -i 17 -a 0 -x {8.0 0.0 17 ------- null}
h -t 0.585 -s 8 -d 3 -p cbr -e 500 -c 0 -i 17 -a 0 -x {8.0 0.0 -1 ------- null}
r -t 0.5855 -s 3 -d 1 -p cbr -e 500 -c 0 -i 9 -a 0 -x {8.0 0.0 9 ------- null}
+ -t 0.5855 -s 1 -d 0 -p cbr -e 500 -c 0 -i 9 -a 0 -x {8.0 0.0 9 ------- null}
- -t 0.5855 -s 1 -d 0 -p cbr -e 500 -c 0 -i 9 -a 0 -x {8.0 0.0 9 ------- null}
h -t 0.5855 -s 1 -d 0 -p cbr -e 500 -c 0 -i 9 -a 0 -x {8.0 0.0 -1 ------- null}
r -t 0.5875 -s 1 -d 0 -p cbr -e 500 -c 0 -i 7 -a 0 -x {8.0 0.0 7 ------- null}
r -t 0.5894 -s 8 -d 3 -p cbr -e 500 -c 0 -i 13 -a 0 -x {8.0 0.0 13 ------- null}
+ -t 0.5894 -s 3 -d 1 -p cbr -e 500 -c 0 -i 13 -a 0 -x {8.0 0.0 13 ------- null}
- -t 0.5894 -s 3 -d 1 -p cbr -e 500 -c 0 -i 13 -a 0 -x {8.0 0.0 13 ------- null}
h -t 0.5894 -s 3 -d 1 -p cbr -e 500 -c 0 -i 13 -a 0 -x {8.0 0.0 -1 ------- null}
+ -t 0.59 -s 8 -d 3 -p cbr -e 500 -c 0 -i 18 -a 0 -x {8.0 0.0 18 ------- null}
- -t 0.59 -s 8 -d 3 -p cbr -e 500 -c 0 -i 18 -a 0 -x {8.0 0.0 18 ------- null}
h -t 0.59 -s 8 -d 3 -p cbr -e 500 -c 0 -i 18 -a 0 -x {8.0 0.0 -1 ------- null}
r -t 0.5905 -s 3 -d 1 -p cbr -e 500 -c 0 -i 10 -a 0 -x {8.0 0.0 10 ------- null}
+ -t 0.5905 -s 1 -d 0 -p cbr -e 500 -c 0 -i 10 -a 0 -x {8.0 0.0 10 ------- null}
- -t 0.5905 -s 1 -d 0 -p cbr -e 500 -c 0 -i 10 -a 0 -x {8.0 0.0 10 ------- null}
h -t 0.5905 -s 1 -d 0 -p cbr -e 500 -c 0 -i 10 -a 0 -x {8.0 0.0 -1 ------- null}
r -t 0.5925 -s 1 -d 0 -p cbr -e 500 -c 0 -i 8 -a 0 -x {8.0 0.0 8 ------- null}
r -t 0.5944 -s 8 -d 3 -p cbr -e 500 -c 0 -i 14 -a 0 -x {8.0 0.0 14 ------- null}
+ -t 0.5944 -s 3 -d 1 -p cbr -e 500 -c 0 -i 14 -a 0 -x {8.0 0.0 14 ------- null}
- -t 0.5944 -s 3 -d 1 -p cbr -e 500 -c 0 -i 14 -a 0 -x {8.0 0.0 14 ------- null}
h -t 0.5944 -s 3 -d 1 -p cbr -e 500 -c 0 -i 14 -a 0 -x {8.0 0.0 -1 ------- null}
+ -t 0.595 -s 8 -d 3 -p cbr -e 500 -c 0 -i 19 -a 0 -x {8.0 0.0 19 ------- null}
- -t 0.595 -s 8 -d 3 -p cbr -e 500 -c 0 -i 19 -a 0 -x {8.0 0.0 19 ------- null}
h -t 0.595 -s 8 -d 3 -p cbr -e 500 -c 0 -i 19 -a 0 -x {8.0 0.0 -1 ------- null}
r -t 0.5955 -s 3 -d 1 -p cbr -e 500 -c 0 -i 11 -a 0 -x {8.0 0.0 11 ------- null}
+ -t 0.5955 -s 1 -d 0 -p cbr -e 500 -c 0 -i 11 -a 0 -x {8.0 0.0 11 ------- null}
- -t 0.5955 -s 1 -d 0 -p cbr -e 500 -c 0 -i 11 -a 0 -x {8.0 0.0 11 ------- null}
h -t 0.5955 -s 1 -d 0 -p cbr -e 500 -c 0 -i 11 -a 0 -x {8.0 0.0 -1 ------- null}
r -t 0.5975 -s 1 -d 0 -p cbr -e 500 -c 0 -i 9 -a 0 -x {8.0 0.0 9 ------- null}
r -t 0.5994 -s 8 -d 3 -p cbr -e 500 -c 0 -i 15 -a 0 -x {8.0 0.0 15 ------- null}
+ -t 0.5994 -s 3 -d 1 -p cbr -e 500 -c 0 -i 15 -a 0 -x {8.0 0.0 15 ------- null}
- -t 0.5994 -s 3 -d 1 -p cbr -e 500 -c 0 -i 15 -a 0 -x {8.0 0.0 15 ------- null}
h -t 0.5994 -s 3 -d 1 -p cbr -e 500 -c 0 -i 15 -a 0 -x {8.0 0.0 -1 ------- null}
+ -t 0.6 -s 8 -d 3 -p cbr -e 500 -c 0 -i 20 -a 0 -x {8.0 0.0 20 ------- null}
- -t 0.6 -s 8 -d 3 -p cbr -e 500 -c 0 -i 20 -a 0 -x {8.0 0.0 20 ------- null}
h -t 0.6 -s 8 -d 3 -p cbr -e 500 -c 0 -i 20 -a 0 -x {8.0 0.0 -1 ------- null}
r -t 0.6005 -s 3 -d 1 -p cbr -e 500 -c 0 -i 12 -a 0 -x {8.0 0.0 12 ------- null}
+ -t 0.6005 -s 1 -d 0 -p cbr -e 500 -c 0 -i 12 -a 0 -x {8.0 0.0 12 ------- null}
- -t 0.6005 -s 1 -d 0 -p cbr -e 500 -c 0 -i 12 -a 0 -x {8.0 0.0 12 ------- null}
h -t 0.6005 -s 1 -d 0 -p cbr -e 500 -c 0 -i 12 -a 0 -x {8.0 0.0 -1 ------- null}
r -t 0.6025 -s 1 -d 0 -p cbr -e 500 -c 0 -i 10 -a 0 -x {8.0 0.0 10 ------- null}
r -t 0.6044 -s 8 -d 3 -p cbr -e 500 -c 0 -i 16 -a 0 -x {8.0 0.0 16 ------- null}
+ -t 0.6044 -s 3 -d 1 -p cbr -e 500 -c 0 -i 16 -a 0 -x {8.0 0.0 16 ------- null}
- -t 0.6044 -s 3 -d 1 -p cbr -e 500 -c 0 -i 16 -a 0 -x {8.0 0.0 16 ------- null}
h -t 0.6044 -s 3 -d 1 -p cbr -e 500 -c 0 -i 16 -a 0 -x {8.0 0.0 -1 ------- null}
+ -t 0.605 -s 8 -d 3 -p cbr -e 500 -c 0 -i 21 -a 0 -x {8.0 0.0 21 ------- null}
- -t 0.605 -s 8 -d 3 -p cbr -e 500 -c 0 -i 21 -a 0 -x {8.0 0.0 21 ------- null}
h -t 0.605 -s 8 -d 3 -p cbr -e 500 -c 0 -i 21 -a 0 -x {8.0 0.0 -1 ------- null}
r -t 0.6055 -s 3 -d 1 -p cbr -e 500 -c 0 -i 13 -a 0 -x {8.0 0.0 13 ------- null}
+ -t 0.6055 -s 1 -d 0 -p cbr -e 500 -c 0 -i 13 -a 0 -x {8.0 0.0 13 ------- null}
- -t 0.6055 -s 1 -d 0 -p cbr -e 500 -c 0 -i 13 -a 0 -x {8.0 0.0 13 ------- null}
h -t 0.6055 -s 1 -d 0 -p cbr -e 500 -c 0 -i 13 -a 0 -x {8.0 0.0 -1 ------- null}
r -t 0.6075 -s 1 -d 0 -p cbr -e 500 -c 0 -i 11 -a 0 -x {8.0 0.0 11 ------- null}
r -t 0.6094 -s 8 -d 3 -p cbr -e 500 -c 0 -i 17 -a 0 -x {8.0 0.0 17 ------- null}
+ -t 0.6094 -s 3 -d 1 -p cbr -e 500 -c 0 -i 17 -a 0 -x {8.0 0.0 17 ------- null}
- -t 0.6094 -s 3 -d 1 -p cbr -e 500 -c 0 -i 17 -a 0 -x {8.0 0.0 17 ------- null}
h -t 0.6094 -s 3 -d 1 -p cbr -e 500 -c 0 -i 17 -a 0 -x {8.0 0.0 -1 ------- null}
+ -t 0.61 -s 8 -d 3 -p cbr -e 500 -c 0 -i 22 -a 0 -x {8.0 0.0 22 ------- null}
- -t 0.61 -s 8 -d 3 -p cbr -e 500 -c 0 -i 22 -a 0 -x {8.0 0.0 22 ------- null}
h -t 0.61 -s 8 -d 3 -p cbr -e 500 -c 0 -i 22 -a 0 -x {8.0 0.0 -1 ------- null}
r -t 0.6105 -s 3 -d 1 -p cbr -e 500 -c 0 -i 14 -a 0 -x {8.0 0.0 14 ------- null}
+ -t 0.6105 -s 1 -d 0 -p cbr -e 500 -c 0 -i 14 -a 0 -x {8.0 0.0 14 ------- null}
- -t 0.6105 -s 1 -d 0 -p cbr -e 500 -c 0 -i 14 -a 0 -x {8.0 0.0 14 ------- null}
h -t 0.6105 -s 1 -d 0 -p cbr -e 500 -c 0 -i 14 -a 0 -x {8.0 0.0 -1 ------- null}
r -t 0.6125 -s 1 -d 0 -p cbr -e 500 -c 0 -i 12 -a 0 -x {8.0 0.0 12 ------- null}
r -t 0.6144 -s 8 -d 3 -p cbr -e 500 -c 0 -i 18 -a 0 -x {8.0 0.0 18 ------- null}
+ -t 0.6144 -s 3 -d 1 -p cbr -e 500 -c 0 -i 18 -a 0 -x {8.0 0.0 18 ------- null}
- -t 0.6144 -s 3 -d 1 -p cbr -e 500 -c 0 -i 18 -a 0 -x {8.0 0.0 18 ------- null}
h -t 0.6144 -s 3 -d 1 -p cbr -e 500 -c 0 -i 18 -a 0 -x {8.0 0.0 -1 ------- null}
+ -t 0.615 -s 8 -d 3 -p cbr -e 500 -c 0 -i 23 -a 0 -x {8.0 0.0 23 ------- null}
- -t 0.615 -s 8 -d 3 -p cbr -e 500 -c 0 -i 23 -a 0 -x {8.0 0.0 23 ------- null}
h -t 0.615 -s 8 -d 3 -p cbr -e 500 -c 0 -i 23 -a 0 -x {8.0 0.0 -1 ------- null}
r -t 0.6155 -s 3 -d 1 -p cbr -e 500 -c 0 -i 15 -a 0 -x {8.0 0.0 15 ------- null}
+ -t 0.6155 -s 1 -d 0 -p cbr -e 500 -c 0 -i 15 -a 0 -x {8.0 0.0 15 ------- null}
- -t 0.6155 -s 1 -d 0 -p cbr -e 500 -c 0 -i 15 -a 0 -x {8.0 0.0 15 ------- null}
h -t 0.6155 -s 1 -d 0 -p cbr -e 500 -c 0 -i 15 -a 0 -x {8.0 0.0 -1 ------- null}
r -t 0.6175 -s 1 -d 0 -p cbr -e 500 -c 0 -i 13 -a 0 -x {8.0 0.0 13 ------- null}
r -t 0.6194 -s 8 -d 3 -p cbr -e 500 -c 0 -i 19 -a 0 -x {8.0 0.0 19 ------- null}
+ -t 0.6194 -s 3 -d 1 -p cbr -e 500 -c 0 -i 19 -a 0 -x {8.0 0.0 19 ------- null}
- -t 0.6194 -s 3 -d 1 -p cbr -e 500 -c 0 -i 19 -a 0 -x {8.0 0.0 19 ------- null}
h -t 0.6194 -s 3 -d 1 -p cbr -e 500 -c 0 -i 19 -a 0 -x {8.0 0.0 -1 ------- null}
+ -t 0.62 -s 8 -d 3 -p cbr -e 500 -c 0 -i 24 -a 0 -x {8.0 0.0 24 ------- null}
- -t 0.62 -s 8 -d 3 -p cbr -e 500 -c 0 -i 24 -a 0 -x {8.0 0.0 24 ------- null}
h -t 0.62 -s 8 -d 3 -p cbr -e 500 -c 0 -i 24 -a 0 -x {8.0 0.0 -1 ------- null}
r -t 0.6205 -s 3 -d 1 -p cbr -e 500 -c 0 -i 16 -a 0 -x {8.0 0.0 16 ------- null}
+ -t 0.6205 -s 1 -d 0 -p cbr -e 500 -c 0 -i 16 -a 0 -x {8.0 0.0 16 ------- null}
- -t 0.6205 -s 1 -d 0 -p cbr -e 500 -c 0 -i 16 -a 0 -x {8.0 0.0 16 ------- null}
h -t 0.6205 -s 1 -d 0 -p cbr -e 500 -c 0 -i 16 -a 0 -x {8.0 0.0 -1 ------- null}
r -t 0.6225 -s 1 -d 0 -p cbr -e 500 -c 0 -i 14 -a 0 -x {8.0 0.0 14 ------- null}
r -t 0.6244 -s 8 -d 3 -p cbr -e 500 -c 0 -i 20 -a 0 -x {8.0 0.0 20 ------- null}
+ -t 0.6244 -s 3 -d 1 -p cbr -e 500 -c 0 -i 20 -a 0 -x {8.0 0.0 20 ------- null}
- -t 0.6244 -s 3 -d 1 -p cbr -e 500 -c 0 -i 20 -a 0 -x {8.0 0.0 20 ------- null}
h -t 0.6244 -s 3 -d 1 -p cbr -e 500 -c 0 -i 20 -a 0 -x {8.0 0.0 -1 ------- null}
+ -t 0.625 -s 8 -d 3 -p cbr -e 500 -c 0 -i 25 -a 0 -x {8.0 0.0 25 ------- null}
- -t 0.625 -s 8 -d 3 -p cbr -e 500 -c 0 -i 25 -a 0 -x {8.0 0.0 25 ------- null}
h -t 0.625 -s 8 -d 3 -p cbr -e 500 -c 0 -i 25 -a 0 -x {8.0 0.0 -1 ------- null}
r -t 0.6255 -s 3 -d 1 -p cbr -e 500 -c 0 -i 17 -a 0 -x {8.0 0.0 17 ------- null}
+ -t 0.6255 -s 1 -d 0 -p cbr -e 500 -c 0 -i 17 -a 0 -x {8.0 0.0 17 ------- null}
- -t 0.6255 -s 1 -d 0 -p cbr -e 500 -c 0 -i 17 -a 0 -x {8.0 0.0 17 ------- null}
h -t 0.6255 -s 1 -d 0 -p cbr -e 500 -c 0 -i 17 -a 0 -x {8.0 0.0 -1 ------- null}
r -t 0.6275 -s 1 -d 0 -p cbr -e 500 -c 0 -i 15 -a 0 -x {8.0 0.0 15 ------- null}
r -t 0.6294 -s 8 -d 3 -p cbr -e 500 -c 0 -i 21 -a 0 -x {8.0 0.0 21 ------- null}
+ -t 0.6294 -s 3 -d 1 -p cbr -e 500 -c 0 -i 21 -a 0 -x {8.0 0.0 21 ------- null}
- -t 0.6294 -s 3 -d 1 -p cbr -e 500 -c 0 -i 21 -a 0 -x {8.0 0.0 21 ------- null}
h -t 0.6294 -s 3 -d 1 -p cbr -e 500 -c 0 -i 21 -a 0 -x {8.0 0.0 -1 ------- null}
+ -t 0.63 -s 8 -d 3 -p cbr -e 500 -c 0 -i 26 -a 0 -x {8.0 0.0 26 ------- null}
- -t 0.63 -s 8 -d 3 -p cbr -e 500 -c 0 -i 26 -a 0 -x {8.0 0.0 26 ------- null}
h -t 0.63 -s 8 -d 3 -p cbr -e 500 -c 0 -i 26 -a 0 -x {8.0 0.0 -1 ------- null}
r -t 0.6305 -s 3 -d 1 -p cbr -e 500 -c 0 -i 18 -a 0 -x {8.0 0.0 18 ------- null}
+ -t 0.6305 -s 1 -d 0 -p cbr -e 500 -c 0 -i 18 -a 0 -x {8.0 0.0 18 ------- null}
- -t 0.6305 -s 1 -d 0 -p cbr -e 500 -c 0 -i 18 -a 0 -x {8.0 0.0 18 ------- null}
h -t 0.6305 -s 1 -d 0 -p cbr -e 500 -c 0 -i 18 -a 0 -x {8.0 0.0 -1 ------- null}
r -t 0.6325 -s 1 -d 0 -p cbr -e 500 -c 0 -i 16 -a 0 -x {8.0 0.0 16 ------- null}
r -t 0.6344 -s 8 -d 3 -p cbr -e 500 -c 0 -i 22 -a 0 -x {8.0 0.0 22 ------- null}
+ -t 0.6344 -s 3 -d 1 -p cbr -e 500 -c 0 -i 22 -a 0 -x {8.0 0.0 22 ------- null}
- -t 0.6344 -s 3 -d 1 -p cbr -e 500 -c 0 -i 22 -a 0 -x {8.0 0.0 22 ------- null}
h -t 0.6344 -s 3 -d 1 -p cbr -e 500 -c 0 -i 22 -a 0 -x {8.0 0.0 -1 ------- null}
+ -t 0.635 -s 8 -d 3 -p cbr -e 500 -c 0 -i 27 -a 0 -x {8.0 0.0 27 ------- null}
- -t 0.635 -s 8 -d 3 -p cbr -e 500 -c 0 -i 27 -a 0 -x {8.0 0.0 27 ------- null}
h -t 0.635 -s 8 -d 3 -p cbr -e 500 -c 0 -i 27 -a 0 -x {8.0 0.0 -1 ------- null}
r -t 0.6355 -s 3 -d 1 -p cbr -e 500 -c 0 -i 19 -a 0 -x {8.0 0.0 19 ------- null}
+ -t 0.6355 -s 1 -d 0 -p cbr -e 500 -c 0 -i 19 -a 0 -x {8.0 0.0 19 ------- null}
- -t 0.6355 -s 1 -d 0 -p cbr -e 500 -c 0 -i 19 -a 0 -x {8.0 0.0 19 ------- null}
h -t 0.6355 -s 1 -d 0 -p cbr -e 500 -c 0 -i 19 -a 0 -x {8.0 0.0 -1 ------- null}
r -t 0.6375 -s 1 -d 0 -p cbr -e 500 -c 0 -i 17 -a 0 -x {8.0 0.0 17 ------- null}
r -t 0.6394 -s 8 -d 3 -p cbr -e 500 -c 0 -i 23 -a 0 -x {8.0 0.0 23 ------- null}
+ -t 0.6394 -s 3 -d 1 -p cbr -e 500 -c 0 -i 23 -a 0 -x {8.0 0.0 23 ------- null}
- -t 0.6394 -s 3 -d 1 -p cbr -e 500 -c 0 -i 23 -a 0 -x {8.0 0.0 23 ------- null}
h -t 0.6394 -s 3 -d 1 -p cbr -e 500 -c 0 -i 23 -a 0 -x {8.0 0.0 -1 ------- null}
+ -t 0.64 -s 8 -d 3 -p cbr -e 500 -c 0 -i 28 -a 0 -x {8.0 0.0 28 ------- null}
- -t 0.64 -s 8 -d 3 -p cbr -e 500 -c 0 -i 28 -a 0 -x {8.0 0.0 28 ------- null}
h -t 0.64 -s 8 -d 3 -p cbr -e 500 -c 0 -i 28 -a 0 -x {8.0 0.0 -1 ------- null}
r -t 0.6405 -s 3 -d 1 -p cbr -e 500 -c 0 -i 20 -a 0 -x {8.0 0.0 20 ------- null}
+ -t 0.6405 -s 1 -d 0 -p cbr -e 500 -c 0 -i 20 -a 0 -x {8.0 0.0 20 ------- null}
- -t 0.6405 -s 1 -d 0 -p cbr -e 500 -c 0 -i 20 -a 0 -x {8.0 0.0 20 ------- null}
h -t 0.6405 -s 1 -d 0 -p cbr -e 500 -c 0 -i 20 -a 0 -x {8.0 0.0 -1 ------- null}
r -t 0.6425 -s 1 -d 0 -p cbr -e 500 -c 0 -i 18 -a 0 -x {8.0 0.0 18 ------- null}
r -t 0.6444 -s 8 -d 3 -p cbr -e 500 -c 0 -i 24 -a 0 -x {8.0 0.0 24 ------- null}
+ -t 0.6444 -s 3 -d 1 -p cbr -e 500 -c 0 -i 24 -a 0 -x {8.0 0.0 24 ------- null}
- -t 0.6444 -s 3 -d 1 -p cbr -e 500 -c 0 -i 24 -a 0 -x {8.0 0.0 24 ------- null}
h -t 0.6444 -s 3 -d 1 -p cbr -e 500 -c 0 -i 24 -a 0 -x {8.0 0.0 -1 ------- null}
+ -t 0.645 -s 8 -d 3 -p cbr -e 500 -c 0 -i 29 -a 0 -x {8.0 0.0 29 ------- null}
- -t 0.645 -s 8 -d 3 -p cbr -e 500 -c 0 -i 29 -a 0 -x {8.0 0.0 29 ------- null}
h -t 0.645 -s 8 -d 3 -p cbr -e 500 -c 0 -i 29 -a 0 -x {8.0 0.0 -1 ------- null}
r -t 0.6455 -s 3 -d 1 -p cbr -e 500 -c 0 -i 21 -a 0 -x {8.0 0.0 21 ------- null}
+ -t 0.6455 -s 1 -d 0 -p cbr -e 500 -c 0 -i 21 -a 0 -x {8.0 0.0 21 ------- null}
- -t 0.6455 -s 1 -d 0 -p cbr -e 500 -c 0 -i 21 -a 0 -x {8.0 0.0 21 ------- null}
h -t 0.6455 -s 1 -d 0 -p cbr -e 500 -c 0 -i 21 -a 0 -x {8.0 0.0 -1 ------- null}
r -t 0.6475 -s 1 -d 0 -p cbr -e 500 -c 0 -i 19 -a 0 -x {8.0 0.0 19 ------- null}
r -t 0.6494 -s 8 -d 3 -p cbr -e 500 -c 0 -i 25 -a 0 -x {8.0 0.0 25 ------- null}
+ -t 0.6494 -s 3 -d 1 -p cbr -e 500 -c 0 -i 25 -a 0 -x {8.0 0.0 25 ------- null}
- -t 0.6494 -s 3 -d 1 -p cbr -e 500 -c 0 -i 25 -a 0 -x {8.0 0.0 25 ------- null}
h -t 0.6494 -s 3 -d 1 -p cbr -e 500 -c 0 -i 25 -a 0 -x {8.0 0.0 -1 ------- null}
+ -t 0.65 -s 8 -d 3 -p cbr -e 500 -c 0 -i 30 -a 0 -x {8.0 0.0 30 ------- null}
- -t 0.65 -s 8 -d 3 -p cbr -e 500 -c 0 -i 30 -a 0 -x {8.0 0.0 30 ------- null}
h -t 0.65 -s 8 -d 3 -p cbr -e 500 -c 0 -i 30 -a 0 -x {8.0 0.0 -1 ------- null}
r -t 0.6505 -s 3 -d 1 -p cbr -e 500 -c 0 -i 22 -a 0 -x {8.0 0.0 22 ------- null}
+ -t 0.6505 -s 1 -d 0 -p cbr -e 500 -c 0 -i 22 -a 0 -x {8.0 0.0 22 ------- null}
- -t 0.6505 -s 1 -d 0 -p cbr -e 500 -c 0 -i 22 -a 0 -x {8.0 0.0 22 ------- null}
h -t 0.6505 -s 1 -d 0 -p cbr -e 500 -c 0 -i 22 -a 0 -x {8.0 0.0 -1 ------- null}
r -t 0.6525 -s 1 -d 0 -p cbr -e 500 -c 0 -i 20 -a 0 -x {8.0 0.0 20 ------- null}
r -t 0.6544 -s 8 -d 3 -p cbr -e 500 -c 0 -i 26 -a 0 -x {8.0 0.0 26 ------- null}
+ -t 0.6544 -s 3 -d 1 -p cbr -e 500 -c 0 -i 26 -a 0 -x {8.0 0.0 26 ------- null}
- -t 0.6544 -s 3 -d 1 -p cbr -e 500 -c 0 -i 26 -a 0 -x {8.0 0.0 26 ------- null}
h -t 0.6544 -s 3 -d 1 -p cbr -e 500 -c 0 -i 26 -a 0 -x {8.0 0.0 -1 ------- null}
+ -t 0.655 -s 8 -d 3 -p cbr -e 500 -c 0 -i 31 -a 0 -x {8.0 0.0 31 ------- null}
- -t 0.655 -s 8 -d 3 -p cbr -e 500 -c 0 -i 31 -a 0 -x {8.0 0.0 31 ------- null}
h -t 0.655 -s 8 -d 3 -p cbr -e 500 -c 0 -i 31 -a 0 -x {8.0 0.0 -1 ------- null}
r -t 0.6555 -s 3 -d 1 -p cbr -e 500 -c 0 -i 23 -a 0 -x {8.0 0.0 23 ------- null}
+ -t 0.6555 -s 1 -d 0 -p cbr -e 500 -c 0 -i 23 -a 0 -x {8.0 0.0 23 ------- null}
- -t 0.6555 -s 1 -d 0 -p cbr -e 500 -c 0 -i 23 -a 0 -x {8.0 0.0 23 ------- null}
h -t 0.6555 -s 1 -d 0 -p cbr -e 500 -c 0 -i 23 -a 0 -x {8.0 0.0 -1 ------- null}
r -t 0.6575 -s 1 -d 0 -p cbr -e 500 -c 0 -i 21 -a 0 -x {8.0 0.0 21 ------- null}
r -t 0.6594 -s 8 -d 3 -p cbr -e 500 -c 0 -i 27 -a 0 -x {8.0 0.0 27 ------- null}
+ -t 0.6594 -s 3 -d 1 -p cbr -e 500 -c 0 -i 27 -a 0 -x {8.0 0.0 27 ------- null}
- -t 0.6594 -s 3 -d 1 -p cbr -e 500 -c 0 -i 27 -a 0 -x {8.0 0.0 27 ------- null}
h -t 0.6594 -s 3 -d 1 -p cbr -e 500 -c 0 -i 27 -a 0 -x {8.0 0.0 -1 ------- null}
+ -t 0.66 -s 8 -d 3 -p cbr -e 500 -c 0 -i 32 -a 0 -x {8.0 0.0 32 ------- null}
- -t 0.66 -s 8 -d 3 -p cbr -e 500 -c 0 -i 32 -a 0 -x {8.0 0.0 32 ------- null}
h -t 0.66 -s 8 -d 3 -p cbr -e 500 -c 0 -i 32 -a 0 -x {8.0 0.0 -1 ------- null}
r -t 0.6605 -s 3 -d 1 -p cbr -e 500 -c 0 -i 24 -a 0 -x {8.0 0.0 24 ------- null}
+ -t 0.6605 -s 1 -d 0 -p cbr -e 500 -c 0 -i 24 -a 0 -x {8.0 0.0 24 ------- null}
- -t 0.6605 -s 1 -d 0 -p cbr -e 500 -c 0 -i 24 -a 0 -x {8.0 0.0 24 ------- null}
h -t 0.6605 -s 1 -d 0 -p cbr -e 500 -c 0 -i 24 -a 0 -x {8.0 0.0 -1 ------- null}
r -t 0.6625 -s 1 -d 0 -p cbr -e 500 -c 0 -i 22 -a 0 -x {8.0 0.0 22 ------- null}
r -t 0.6644 -s 8 -d 3 -p cbr -e 500 -c 0 -i 28 -a 0 -x {8.0 0.0 28 ------- null}
+ -t 0.6644 -s 3 -d 1 -p cbr -e 500 -c 0 -i 28 -a 0 -x {8.0 0.0 28 ------- null}
- -t 0.6644 -s 3 -d 1 -p cbr -e 500 -c 0 -i 28 -a 0 -x {8.0 0.0 28 ------- null}
h -t 0.6644 -s 3 -d 1 -p cbr -e 500 -c 0 -i 28 -a 0 -x {8.0 0.0 -1 ------- null}
+ -t 0.665 -s 8 -d 3 -p cbr -e 500 -c 0 -i 33 -a 0 -x {8.0 0.0 33 ------- null}
- -t 0.665 -s 8 -d 3 -p cbr -e 500 -c 0 -i 33 -a 0 -x {8.0 0.0 33 ------- null}
h -t 0.665 -s 8 -d 3 -p cbr -e 500 -c 0 -i 33 -a 0 -x {8.0 0.0 -1 ------- null}
r -t 0.6655 -s 3 -d 1 -p cbr -e 500 -c 0 -i 25 -a 0 -x {8.0 0.0 25 ------- null}
+ -t 0.6655 -s 1 -d 0 -p cbr -e 500 -c 0 -i 25 -a 0 -x {8.0 0.0 25 ------- null}
- -t 0.6655 -s 1 -d 0 -p cbr -e 500 -c 0 -i 25 -a 0 -x {8.0 0.0 25 ------- null}
h -t 0.6655 -s 1 -d 0 -p cbr -e 500 -c 0 -i 25 -a 0 -x {8.0 0.0 -1 ------- null}
r -t 0.6675 -s 1 -d 0 -p cbr -e 500 -c 0 -i 23 -a 0 -x {8.0 0.0 23 ------- null}
r -t 0.6694 -s 8 -d 3 -p cbr -e 500 -c 0 -i 29 -a 0 -x {8.0 0.0 29 ------- null}
+ -t 0.6694 -s 3 -d 1 -p cbr -e 500 -c 0 -i 29 -a 0 -x {8.0 0.0 29 ------- null}
- -t 0.6694 -s 3 -d 1 -p cbr -e 500 -c 0 -i 29 -a 0 -x {8.0 0.0 29 ------- null}
h -t 0.6694 -s 3 -d 1 -p cbr -e 500 -c 0 -i 29 -a 0 -x {8.0 0.0 -1 ------- null}
+ -t 0.67 -s 8 -d 3 -p cbr -e 500 -c 0 -i 34 -a 0 -x {8.0 0.0 34 ------- null}
- -t 0.67 -s 8 -d 3 -p cbr -e 500 -c 0 -i 34 -a 0 -x {8.0 0.0 34 ------- null}
h -t 0.67 -s 8 -d 3 -p cbr -e 500 -c 0 -i 34 -a 0 -x {8.0 0.0 -1 ------- null}
r -t 0.6705 -s 3 -d 1 -p cbr -e 500 -c 0 -i 26 -a 0 -x {8.0 0.0 26 ------- null}
+ -t 0.6705 -s 1 -d 0 -p cbr -e 500 -c 0 -i 26 -a 0 -x {8.0 0.0 26 ------- null}
- -t 0.6705 -s 1 -d 0 -p cbr -e 500 -c 0 -i 26 -a 0 -x {8.0 0.0 26 ------- null}
h -t 0.6705 -s 1 -d 0 -p cbr -e 500 -c 0 -i 26 -a 0 -x {8.0 0.0 -1 ------- null}
r -t 0.6725 -s 1 -d 0 -p cbr -e 500 -c 0 -i 24 -a 0 -x {8.0 0.0 24 ------- null}
r -t 0.6744 -s 8 -d 3 -p cbr -e 500 -c 0 -i 30 -a 0 -x {8.0 0.0 30 ------- null}
+ -t 0.6744 -s 3 -d 1 -p cbr -e 500 -c 0 -i 30 -a 0 -x {8.0 0.0 30 ------- null}
- -t 0.6744 -s 3 -d 1 -p cbr -e 500 -c 0 -i 30 -a 0 -x {8.0 0.0 30 ------- null}
h -t 0.6744 -s 3 -d 1 -p cbr -e 500 -c 0 -i 30 -a 0 -x {8.0 0.0 -1 ------- null}