+ 0.5 24 11 cbr 100 ------- 0 24.0 0.0 0 0
- 0.5 24 11 cbr 100 ------- 0 24.0 0.0 0 0
+ 0.51 24 11 cbr 100 ------- 0 24.0 0.0 1 1
- 0.51 24 11 cbr 100 ------- 0 24.0 0.0 1 1
+ 0.52 24 11 cbr 100 ------- 0 24.0 0.0 2 2
- 0.52 24 11 cbr 100 ------- 0 24.0 0.0 2 2
+ 0.53 24 11 cbr 100 ------- 0 24.0 0.0 3 3
- 0.53 24 11 cbr 100 ------- 0 24.0 0.0 3 3
r 0.5365 24 11 cbr 100 ------- 0 24.0 0.0 0 0
+ 0.5365 11 5 cbr 100 ------- 0 24.0 0.0 0 0
- 0.5365 11 5 cbr 100 ------- 0 24.0 0.0 0 0
+ 0.54 24 11 cbr 100 ------- 0 24.0 0.0 4 4
- 0.54 24 11 cbr 100 ------- 0 24.0 0.0 4 4
r 0.5465 24 11 cbr 100 ------- 0 24.0 0.0 1 1
+ 0.5465 11 5 cbr 100 ------- 0 24.0 0.0 1 1
- 0.5465 11 5 cbr 100 ------- 0 24.0 0.0 1 1
+ 0.55 24 11 cbr 100 ------- 0 24.0 0.0 5 5
- 0.55 24 11 cbr 100 ------- 0 24.0 0.0 5 5
r 0.551 11 5 cbr 100 ------- 0 24.0 0.0 0 0
+ 0.551 5 2 cbr 100 ------- 0 24.0 0.0 0 0
- 0.551 5 2 cbr 100 ------- 0 24.0 0.0 0 0
r 0.5565 24 11 cbr 100 ------- 0 24.0 0.0 2 2
+ 0.5565 11 5 cbr 100 ------- 0 24.0 0.0 2 2
- 0.5565 11 5 cbr 100 ------- 0 24.0 0.0 2 2
+ 0.56 24 11 cbr 100 ------- 0 24.0 0.0 6 6
- 0.56 24 11 cbr 100 ------- 0 24.0 0.0 6 6
r 0.561 11 5 cbr 100 ------- 0 24.0 0.0 1 1
+ 0.561 5 2 cbr 100 ------- 0 24.0 0.0 1 1
- 0.561 5 2 cbr 100 ------- 0 24.0 0.0 1 1
r 0.5665 24 11 cbr 100 ------- 0 24.0 0.0 3 3
+ 0.5665 11 5 cbr 100 ------- 0 24.0 0.0 3 3
- 0.5665 11 5 cbr 100 ------- 0 24.0 0.0 3 3
+ 0.57 24 11 cbr 100 ------- 0 24.0 0.0 7 7
- 0.57 24 11 cbr 100 ------- 0 24.0 0.0 7 7
r 0.571 11 5 cbr 100 ------- 0 24.0 0.0 2 2
+ 0.571 5 2 cbr 100 ------- 0 24.0 0.0 2 2
- 0.571 5 2 cbr 100 ------- 0 24.0 0.0 2 2
r 0.5738 5 2 cbr 100 ------- 0 24.0 0.0 0 0
+ 0.5738 2 0 cbr 100 ------- 0 24.0 0.0 0 0
- 0.5738 2 0 cbr 100 ------- 0 24.0 0.0 0 0
r 0.5765 24 11 cbr 100 ------- 0 24.0 0.0 4 4
+ 0.5765 11 5 cbr 100 ------- 0 24.0 0.0 4 4
- 0.5765 11 5 cbr 100 ------- 0 24.0 0.0 4 4
+ 0.58 24 11 cbr 100 ------- 0 24.0 0.0 8 8
- 0.58 24 11 cbr 100 ------- 0 24.0 0.0 8 8
r 0.581 11 5 cbr 100 ------- 0 24.0 0.0 3 3
+ 0.581 5 2 cbr 100 ------- 0 24.0 0.0 3 3
- 0.581 5 2 cbr 100 ------- 0 24.0 0.0 3 3
r 0.5838 5 2 cbr 100 ------- 0 24.0 0.0 1 1
+ 0.5838 2 0 cbr 100 ------- 0 24.0 0.0 1 1
- 0.5838 2 0 cbr 100 ------- 0 24.0 0.0 1 1
r 0.5865 24 11 cbr 100 ------- 0 24.0 0.0 5 5
+ 0.5865 11 5 cbr 100 ------- 0 24.0 0.0 5 5
- 0.5865 11 5 cbr 100 ------- 0 24.0 0.0 5 5
+ 0.59 24 11 cbr 100 ------- 0 24.0 0.0 9 9
- 0.59 24 11 cbr 100 ------- 0 24.0 0.0 9 9
r 0.591 11 5 cbr 100 ------- 0 24.0 0.0 4 4
+ 0.591 5 2 cbr 100 ------- 0 24.0 0.0 4 4
- 0.591 5 2 cbr 100 ------- 0 24.0 0.0 4 4
r 0.5938 5 2 cbr 100 ------- 0 24.0 0.0 2 2
+ 0.5938 2 0 cbr 100 ------- 0 24.0 0.0 2 2
- 0.5938 2 0 cbr 100 ------- 0 24.0 0.0 2 2
r 0.5942 2 0 cbr 100 ------- 0 24.0 0.0 0 0
r 0.5965 24 11 cbr 100 ------- 0 24.0 0.0 6 6
+ 0.5965 11 5 cbr 100 ------- 0 24.0 0.0 6 6
- 0.5965 11 5 cbr 100 ------- 0 24.0 0.0 6 6
+ 0.6 24 11 cbr 100 ------- 0 24.0 0.0 10 10
- 0.6 24 11 cbr 100 ------- 0 24.0 0.0 10 10
r 0.601 11 5 cbr 100 ------- 0 24.0 0.0 5 5
+ 0.601 5 2 cbr 100 ------- 0 24.0 0.0 5 5
- 0.601 5 2 cbr 100 ------- 0 24.0 0.0 5 5
r 0.6038 5 2 cbr 100 ------- 0 24.0 0.0 3 3
+ 0.6038 2 0 cbr 100 ------- 0 24.0 0.0 3 3
- 0.6038 2 0 cbr 100 ------- 0 24.0 0.0 3 3
r 0.6042 2 0 cbr 100 ------- 0 24.0 0.0 1 1
r 0.6065 24 11 cbr 100 ------- 0 24.0 0.0 7 7
+ 0.6065 11 5 cbr 100 ------- 0 24.0 0.0 7 7
- 0.6065 11 5 cbr 100 ------- 0 24.0 0.0 7 7
+ 0.61 24 11 cbr 100 ------- 0 24.0 0.0 11 11
- 0.61 24 11 cbr 100 ------- 0 24.0 0.0 11 11
r 0.611 11 5 cbr 100 ------- 0 24.0 0.0 6 6
+ 0.611 5 2 cbr 100 ------- 0 24.0 0.0 6 6
- 0.611 5 2 cbr 100 ------- 0 24.0 0.0 6 6
r 0.6138 5 2 cbr 100 ------- 0 24.0 0.0 4 4
+ 0.6138 2 0 cbr 100 ------- 0 24.0 0.0 4 4
- 0.6138 2 0 cbr 100 ------- 0 24.0 0.0 4 4
r 0.6142 2 0 cbr 100 ------- 0 24.0 0.0 2 2
r 0.6165 24 11 cbr 100 ------- 0 24.0 0.0 8 8
+ 0.6165 11 5 cbr 100 ------- 0 24.0 0.0 8 8
- 0.6165 11 5 cbr 100 ------- 0 24.0 0.0 8 8
+ 0.62 24 11 cbr 100 ------- 0 24.0 0.0 12 12
- 0.62 24 11 cbr 100 ------- 0 24.0 0.0 12 12
r 0.621 11 5 cbr 100 ------- 0 24.0 0.0 7 7
+ 0.621 5 2 cbr 100 ------- 0 24.0 0.0 7 7
- 0.621 5 2 cbr 100 ------- 0 24.0 0.0 7 7
r 0.6238 5 2 cbr 100 ------- 0 24.0 0.0 5 5
+ 0.6238 2 0 cbr 100 ------- 0 24.0 0.0 5 5
- 0.6238 2 0 cbr 100 ------- 0 24.0 0.0 5 5
r 0.6242 2 0 cbr 100 ------- 0 24.0 0.0 3 3
r 0.6265 24 11 cbr 100 ------- 0 24.0 0.0 9 9
+ 0.6265 11 5 cbr 100 ------- 0 24.0 0.0 9 9
- 0.6265 11 5 cbr 100 ------- 0 24.0 0.0 9 9
+ 0.63 24 11 cbr 100 ------- 0 24.0 0.0 13 13
- 0.63 24 11 cbr 100 ------- 0 24.0 0.0 13 13
r 0.631 11 5 cbr 100 ------- 0 24.0 0.0 8 8
+ 0.631 5 2 cbr 100 ------- 0 24.0 0.0 8 8
- 0.631 5 2 cbr 100 ------- 0 24.0 0.0 8 8
r 0.6338 5 2 cbr 100 ------- 0 24.0 0.0 6 6
+ 0.6338 2 0 cbr 100 ------- 0 24.0 0.0 6 6
- 0.6338 2 0 cbr 100 ------- 0 24.0 0.0 6 6
r 0.6342 2 0 cbr 100 ------- 0 24.0 0.0 4 4
r 0.6365 24 11 cbr 100 ------- 0 24.0 0.0 10 10
+ 0.6365 11 5 cbr 100 ------- 0 24.0 0.0 10 10
- 0.6365 11 5 cbr 100 ------- 0 24.0 0.0 10 10
+ 0.64 24 11 cbr 100 ------- 0 24.0 0.0 14 14
- 0.64 24 11 cbr 100 ------- 0 24.0 0.0 14 14
r 0.641 11 5 cbr 100 ------- 0 24.0 0.0 9 9
+ 0.641 5 2 cbr 100 ------- 0 24.0 0.0 9 9
- 0.641 5 2 cbr 100 ------- 0 24.0 0.0 9 9
r 0.6438 5 2 cbr 100 ------- 0 24.0 0.0 7 7
+ 0.6438 2 0 cbr 100 ------- 0 24.0 0.0 7 7
- 0.6438 2 0 cbr 100 ------- 0 24.0 0.0 7 7
r 0.6442 2 0 cbr 100 ------- 0 24.0 0.0 5 5
r 0.6465 24 11 cbr 100 ------- 0 24.0 0.0 11 11
+ 0.6465 11 5 cbr 100 ------- 0 24.0 0.0 11 11
- 0.6465 11 5 cbr 100 ------- 0 24.0 0.0 11 11
+ 0.65 24 11 cbr 100 ------- 0 24.0 0.0 15 15
- 0.65 24 11 cbr 100 ------- 0 24.0 0.0 15 15
r 0.651 11 5 cbr 100 ------- 0 24.0 0.0 10 10
+ 0.651 5 2 cbr 100 ------- 0 24.0 0.0 10 10
- 0.651 5 2 cbr 100 ------- 0 24.0 0.0 10 10
r 0.6538 5 2 cbr 100 ------- 0 24.0 0.0 8 8
+ 0.6538 2 0 cbr 100 ------- 0 24.0 0.0 8 8
- 0.6538 2 0 cbr 100 ------- 0 24.0 0.0 8 8
r 0.6542 2 0 cbr 100 ------- 0 24.0 0.0 6 6
r 0.6565 24 11 cbr 100 ------- 0 24.0 0.0 12 12
+ 0.6565 11 5 cbr 100 ------- 0 24.0 0.0 12 12
- 0.6565 11 5 cbr 100 ------- 0 24.0 0.0 12 12
+ 0.66 24 11 cbr 100 ------- 0 24.0 0.0 16 16
- 0.66 24 11 cbr 100 ------- 0 24.0 0.0 16 16
r 0.661 11 5 cbr 100 ------- 0 24.0 0.0 11 11
+ 0.661 5 2 cbr 100 ------- 0 24.0 0.0 11 11
- 0.661 5 2 cbr 100 ------- 0 24.0 0.0 11 11
r 0.6638 5 2 cbr 100 ------- 0 24.0 0.0 9 9
+ 0.6638 2 0 cbr 100 ------- 0 24.0 0.0 9 9
- 0.6638 2 0 cbr 100 ------- 0 24.0 0.0 9 9
r 0.6642 2 0 cbr 100 ------- 0 24.0 0.0 7 7
r 0.6665 24 11 cbr 100 ------- 0 24.0 0.0 13 13
+ 0.6665 11 5 cbr 100 ------- 0 24.0 0.0 13 13
- 0.6665 11 5 cbr 100 ------- 0 24.0 0.0 13 13
+ 0.67 24 11 cbr 100 ------- 0 24.0 0.0 17 17
- 0.67 24 11 cbr 100 ------- 0 24.0 0.0 17 17
r 0.671 11 5 cbr 100 ------- 0 24.0 0.0 12 12
+ 0.671 5 2 cbr 100 ------- 0 24.0 0.0 12 12
- 0.671 5 2 cbr 100 ------- 0 24.0 0.0 12 12
r 0.6738 5 2 cbr 100 ------- 0 24.0 0.0 10 10
+ 0.6738 2 0 cbr 100 ------- 0 24.0 0.0 10 10
- 0.6738 2 0 cbr 100 ------- 0 24.0 0.0 10 10
r 0.6742 2 0 cbr 100 ------- 0 24.0 0.0 8 8
r 0.6765 24 11 cbr 100 ------- 0 24.0 0.0 14 14
+ 0.6765 11 5 cbr 100 ------- 0 24.0 0.0 14 14
- 0.6765 11 5 cbr 100 ------- 0 24.0 0.0 14 14
+ 0.68 24 11 cbr 100 ------- 0 24.0 0.0 18 18
- 0.68 24 11 cbr 100 ------- 0 24.0 0.0 18 18
r 0.681 11 5 cbr 100 ------- 0 24.0 0.0 13 13
+ 0.681 5 2 cbr 100 ------- 0 24.0 0.0 13 13
- 0.681 5 2 cbr 100 ------- 0 24.0 0.0 13 13
r 0.6838 5 2 cbr 100 ------- 0 24.0 0.0 11 11
+ 0.6838 2 0 cbr 100 ------- 0 24.0 0.0 11 11
- 0.6838 2 0 cbr 100 ------- 0 24.0 0.0 11 11
r 0.6842 2 0 cbr 100 ------- 0 24.0 0.0 9 9
r 0.6865 24 11 cbr 100 ------- 0 24.0 0.0 15 15
+ 0.6865 11 5 cbr 100 ------- 0 24.0 0.0 15 15
- 0.6865 11 5 cbr 100 ------- 0 24.0 0.0 15 15
+ 0.69 24 11 cbr 100 ------- 0 24.0 0.0 19 19
- 0.69 24 11 cbr 100 ------- 0 24.0 0.0 19 19
r 0.691 11 5 cbr 100 ------- 0 24.0 0.0 14 14
+ 0.691 5 2 cbr 100 ------- 0 24.0 0.0 14 14
- 0.691 5 2 cbr 100 ------- 0 24.0 0.0 14 14
r 0.6938 5 2 cbr 100 ------- 0 24.0 0.0 12 12
+ 0.6938 2 0 cbr 100 ------- 0 24.0 0.0 12 12
- 0.6938 2 0 cbr 100 ------- 0 24.0 0.0 12 12
r 0.6942 2 0 cbr 100 ------- 0 24.0 0.0 10 10
r 0.6965 24 11 cbr 100 ------- 0 24.0 0.0 16 16
+ 0.6965 11 5 cbr 100 ------- 0 24.0 0.0 16 16
- 0.6965 11 5 cbr 100 ------- 0 24.0 0.0 16 16
+ 0.7 24 11 cbr 100 ------- 0 24.0 0.0 20 20
- 0.7 24 11 cbr 100 ------- 0 24.0 0.0 20 20
r 0.701 11 5 cbr 100 ------- 0 24.0 0.0 15 15
+ 0.701 5 2 cbr 100 ------- 0 24.0 0.0 15 15
- 0.701 5 2 cbr 100 ------- 0 24.0 0.0 15 15
r 0.7038 5 2 cbr 100 ------- 0 24.0 0.0 13 13
+ 0.7038 2 0 cbr 100 ------- 0 24.0 0.0 13 13
- 0.7038 2 0 cbr 100 ------- 0 24.0 0.0 13 13
r 0.7042 2 0 cbr 100 ------- 0 24.0 0.0 11 11
r 0.7065 24 11 cbr 100 ------- 0 24.0 0.0 17 17
+ 0.7065 11 5 cbr 100 ------- 0 24.0 0.0 17 17
- 0.7065 11 5 cbr 100 ------- 0 24.0 0.0 17 17
+ 0.71 24 11 cbr 100 ------- 0 24.0 0.0 21 21
- 0.71 24 11 cbr 100 ------- 0 24.0 0.0 21 21
r 0.711 11 5 cbr 100 ------- 0 24.0 0.0 16 16
+ 0.711 5 2 cbr 100 ------- 0 24.0 0.0 16 16
- 0.711 5 2 cbr 100 ------- 0 24.0 0.0 16 16
r 0.7138 5 2 cbr 100 ------- 0 24.0 0.0 14 14
+ 0.7138 2 0 cbr 100 ------- 0 24.0 0.0 14 14
- 0.7138 2 0 cbr 100 ------- 0 24.0 0.0 14 14
r 0.7142 2 0 cbr 100 ------- 0 24.0 0.0 12 12
r 0.7165 24 11 cbr 100 ------- 0 24.0 0.0 18 18
+ 0.7165 11 5 cbr 100 ------- 0 24.0 0.0 18 18
- 0.7165 11 5 cbr 100 ------- 0 24.0 0.0 18 18
+ 0.72 24 11 cbr 100 ------- 0 24.0 0.0 22 22
- 0.72 24 11 cbr 100 ------- 0 24.0 0.0 22 22
r 0.721 11 5 cbr 100 ------- 0 24.0 0.0 17 17
+ 0.721 5 2 cbr 100 ------- 0 24.0 0.0 17 17
- 0.721 5 2 cbr 100 ------- 0 24.0 0.0 17 17
r 0.7238 5 2 cbr 100 ------- 0 24.0 0.0 15 15
+ 0.7238 2 0 cbr 100 ------- 0 24.0 0.0 15 15
- 0.7238 2 0 cbr 100 ------- 0 24.0 0.0 15 15
r 0.7242 2 0 cbr 100 ------- 0 24.0 0.0 13 13
r 0.7265 24 11 cbr 100 ------- 0 24.0 0.0 19 19
+ 0.7265 11 5 cbr 100 ------- 0 24.0 0.0 19 19
- 0.7265 11 5 cbr 100 ------- 0 24.0 0.0 19 19
+ 0.73 24 11 cbr 100 ------- 0 24.0 0.0 23 23
- 0.73 24 11 cbr 100 ------- 0 24.0 0.0 23 23
r 0.731 11 5 cbr 100 ------- 0 24.0 0.0 18 18
+ 0.731 5 2 cbr 100 ------- 0 24.0 0.0 18 18
- 0.731 5 2 cbr 100 ------- 0 24.0 0.0 18 18
r 0.7338 5 2 cbr 100 ------- 0 24.0 0.0 16 16
+ 0.7338 2 0 cbr 100 ------- 0 24.0 0.0 16 16
- 0.7338 2 0 cbr 100 ------- 0 24.0 0.0 16 16
r 0.7342 2 0 cbr 100 ------- 0 24.0 0.0 14 14
r 0.7365 24 11 cbr 100 ------- 0 24.0 0.0 20 20
+ 0.7365 11 5 cbr 100 ------- 0 24.0 0.0 20 20
- 0.7365 11 5 cbr 100 ------- 0 24.0 0.0 20 20
+ 0.74 24 11 cbr 100 ------- 0 24.0 0.0 24 24
- 0.74 24 11 cbr 100 ------- 0 24.0 0.0 24 24
r 0.741 11 5 cbr 100 ------- 0 24.0 0.0 19 19
+ 0.741 5 2 cbr 100 ------- 0 24.0 0.0 19 19
- 0.741 5 2 cbr 100 ------- 0 24.0 0.0 19 19
r 0.7438 5 2 cbr 100 ------- 0 24.0 0.0 17 17
+ 0.7438 2 0 cbr 100 ------- 0 24.0 0.0 17 17
- 0.7438 2 0 cbr 100 ------- 0 24.0 0.0 17 17
r 0.7442 2 0 cbr 100 ------- 0 24.0 0.0 15 15
r 0.7465 24 11 cbr 100 ------- 0 24.0 0.0 21 21
+ 0.7465 11 5 cbr 100 ------- 0 24.0 0.0 21 21
- 0.7465 11 5 cbr 100 ------- 0 24.0 0.0 21 21
+ 0.75 24 11 cbr 100 ------- 0 24.0 0.0 25 25
- 0.75 24 11 cbr 100 ------- 0 24.0 0.0 25 25
r 0.751 11 5 cbr 100 ------- 0 24.0 0.0 20 20
+ 0.751 5 2 cbr 100 ------- 0 24.0 0.0 20 20
- 0.751 5 2 cbr 100 ------- 0 24.0 0.0 20 20
r 0.7538 5 2 cbr 100 ------- 0 24.0 0.0 18 18
+ 0.7538 2 0 cbr 100 ------- 0 24.0 0.0 18 18
- 0.7538 2 0 cbr 100 ------- 0 24.0 0.0 18 18
r 0.7542 2 0 cbr 100 ------- 0 24.0 0.0 16 16
r 0.7565 24 11 cbr 100 ------- 0 24.0 0.0 22 22
+ 0.7565 11 5 cbr 100 ------- 0 24.0 0.0 22 22
- 0.7565 11 5 cbr 100 ------- 0 24.0 0.0 22 22
+ 0.76 24 11 cbr 100 ------- 0 24.0 0.0 26 26
- 0.76 24 11 cbr 100 ------- 0 24.0 0.0 26 26
r 0.761 11 5 cbr 100 ------- 0 24.0 0.0 21 21
+ 0.761 5 2 cbr 100 ------- 0 24.0 0.0 21 21
- 0.761 5 2 cbr 100 ------- 0 24.0 0.0 21 21
r 0.7638 5 2 cbr 100 ------- 0 24.0 0.0 19 19
+ 0.7638 2 0 cbr 100 ------- 0 24.0 0.0 19 19
- 0.7638 2 0 cbr 100 ------- 0 24.0 0.0 19 19
r 0.7642 2 0 cbr 100 ------- 0 24.0 0.0 17 17
r 0.7665 24 11 cbr 100 ------- 0 24.0 0.0 23 23
+ 0.7665 11 5 cbr 100 ------- 0 24.0 0.0 23 23
- 0.7665 11 5 cbr 100 ------- 0 24.0 0.0 23 23
+ 0.77 24 11 cbr 100 ------- 0 24.0 0.0 27 27
- 0.77 24 11 cbr 100 ------- 0 24.0 0.0 27 27
r 0.771 11 5 cbr 100 ------- 0 24.0 0.0 22 22
+ 0.771 5 2 cbr 100 ------- 0 24.0 0.0 22 22
- 0.771 5 2 cbr 100 ------- 0 24.0 0.0 22 22
r 0.7738 5 2 cbr 100 ------- 0 24.0 0.0 20 20
+ 0.7738 2 0 cbr 100 ------- 0 24.0 0.0 20 20
- 0.7738 2 0 cbr 100 ------- 0 24.0 0.0 20 20
r 0.7742 2 0 cbr 100 ------- 0 24.0 0.0 18 18
r 0.7765 24 11 cbr 100 ------- 0 24.0 0.0 24 24
+ 0.7765 11 5 cbr 100 ------- 0 24.0 0.0 24 24
- 0.7765 11 5 cbr 100 ------- 0 24.0 0.0 24 24
+ 0.78 24 11 cbr 100 ------- 0 24.0 0.0 28 28
- 0.78 24 11 cbr 100 ------- 0 24.0 0.0 28 28
r 0.781 11 5 cbr 100 ------- 0 24.0 0.0 23 23
+ 0.781 5 2 cbr 100 ------- 0 24.0 0.0 23 23
- 0.781 5 2 cbr 100 ------- 0 24.0 0.0 23 23
r 0.7838 5 2 cbr 100 ------- 0 24.0 0.0 21 21
+ 0.7838 2 0 cbr 100 ------- 0 24.0 0.0 21 21
- 0.7838 2 0 cbr 100 ------- 0 24.0 0.0 21 21
r 0.7842 2 0 cbr 100 ------- 0 24.0 0.0 19 19
r 0.7865 24 11 cbr 100 ------- 0 24.0 0.0 25 25
+ 0.7865 11 5 cbr 100 ------- 0 24.0 0.0 25 25
- 0.7865 11 5 cbr 100 ------- 0 24.0 0.0 25 25
+ 0.79 24 11 cbr 100 ------- 0 24.0 0.0 29 29
- 0.79 24 11 cbr 100 ------- 0 24.0 0.0 29 29
r 0.791 11 5 cbr 100 ------- 0 24.0 0.0 24 24
+ 0.791 5 2 cbr 100 ------- 0 24.0 0.0 24 24
- 0.791 5 2 cbr 100 ------- 0 24.0 0.0 24 24
r 0.7938 5 2 cbr 100 ------- 0 24.0 0.0 22 22
+ 0.7938 2 0 cbr 100 ------- 0 24.0 0.0 22 22
- 0.7938 2 0 cbr 100 ------- 0 24.0 0.0 22 22
r 0.7942 2 0 cbr 100 ------- 0 24.0 0.0 20 20
r 0.7965 24 11 cbr 100 ------- 0 24.0 0.0 26 26
+ 0.7965 11 5 cbr 100 ------- 0 24.0 0.0 26 26
- 0.7965 11 5 cbr 100 ------- 0 24.0 0.0 26 26
+ 0.8 24 11 cbr 100 ------- 0 24.0 0.0 30 30
- 0.8 24 11 cbr 100 ------- 0 24.0 0.0 30 30
r 0.801 11 5 cbr 100 ------- 0 24.0 0.0 25 25
+ 0.801 5 2 cbr 100 ------- 0 24.0 0.0 25 25
- 0.801 5 2 cbr 100 ------- 0 24.0 0.0 25 25
r 0.8038 5 2 cbr 100 ------- 0 24.0 0.0 23 23
+ 0.8038 2 0 cbr 100 ------- 0 24.0 0.0 23 23
- 0.8038 2 0 cbr 100 ------- 0 24.0 0.0 23 23
r 0.8042 2 0 cbr 100 ------- 0 24.0 0.0 21 21
r 0.8065 24 11 cbr 100 ------- 0 24.0 0.0 27 27
+ 0.8065 11 5 cbr 100 ------- 0 24.0 0.0 27 27
- 0.8065 11 5 cbr 100 ------- 0 24.0 0.0 27 27
+ 0.81 24 11 cbr 100 ------- 0 24.0 0.0 31 31
- 0.81 24 11 cbr 100 ------- 0 24.0 0.0 31 31
r 0.811 11 5 cbr 100 ------- 0 24.0 0.0 26 26
+ 0.811 5 2 cbr 100 ------- 0 24.0 0.0 26 26
- 0.811 5 2 cbr 100 ------- 0 24.0 0.0 26 26
r 0.8138 5 2 cbr 100 ------- 0 24.0 0.0 24 24
+ 0.8138 2 0 cbr 100 ------- 0 24.0 0.0 24 24
- 0.8138 2 0 cbr 100 ------- 0 24.0 0.0 24 24
r 0.8142 2 0 cbr 100 ------- 0 24.0 0.0 22 22
r 0.8165 24 11 cbr 100 ------- 0 24.0 0.0 28 28
+ 0.8165 11 5 cbr 100 ------- 0 24.0 0.0 28 28
- 0.8165 11 5 cbr 100 ------- 0 24.0 0.0 28 28
+ 0.82 24 11 cbr 100 ------- 0 24.0 0.0 32 32
- 0.82 24 11 cbr 100 ------- 0 24.0 0.0 32 32
r 0.821 11 5 cbr 100 ------- 0 24.0 0.0 27 27
+ 0.821 5 2 cbr 100 ------- 0 24.0 0.0 27 27
- 0.821 5 2 cbr 100 ------- 0 24.0 0.0 27 27
r 0.8238 5 2 cbr 100 ------- 0 24.0 0.0 25 25
+ 0.8238 2 0 cbr 100 ------- 0 24.0 0.0 25 25
- 0.8238 2 0 cbr 100 ------- 0 24.0 0.0 25 25
r 0.8242 2 0 cbr 100 ------- 0 24.0 0.0 23 23
r 0.8265 24 11 cbr 100 ------- 0 24.0 0.0 29 29
+ 0.8265 11 5 cbr 100 ------- 0 24.0 0.0 29 29
- 0.8265 11 5 cbr 100 ------- 0 24.0 0.0 29 29
+ 0.83 24 11 cbr 100 ------- 0 24.0 0.0 33 33
- 0.83 24 11 cbr 100 ------- 0 24.0 0.0 33 33
r 0.831 11 5 cbr 100 ------- 0 24.0 0.0 28 28
+ 0.831 5 2 cbr 100 ------- 0 24.0 0.0 28 28
- 0.831 5 2 cbr 100 ------- 0 24.0 0.0 28 28
r 0.8338 5 2 cbr 100 ------- 0 24.0 0.0 26 26
+ 0.8338 2 0 cbr 100 ------- 0 24.0 0.0 26 26
- 0.8338 2 0 cbr 100 ------- 0 24.0 0.0 26 26
r 0.8342 2 0 cbr 100 ------- 0 24.0 0.0 24 24
r 0.8365 24 11 cbr 100 ------- 0 24.0 0.0 30 30
+ 0.8365 11 5 cbr 100 ------- 0 24.0 0.0 30 30
- 0.8365 11 5 cbr 100 ------- 0 24.0 0.0 30 30
+ 0.84 24 11 cbr 100 ------- 0 24.0 0.0 34 34
- 0.84 24 11 cbr 100 ------- 0 24.0 0.0 34 34
r 0.841 11 5 cbr 100 ------- 0 24.0 0.0 29 29
+ 0.841 5 2 cbr 100 ------- 0 24.0 0.0 29 29
- 0.841 5 2 cbr 100 ------- 0 24.0 0.0 29 29
r 0.8438 5 2 cbr 100 ------- 0 24.0 0.0 27 27
+ 0.8438 2 0 cbr 100 ------- 0 24.0 0.0 27 27
- 0.8438 2 0 cbr 100 ------- 0 24.0 0.0 27 27
r 0.8442 2 0 cbr 100 ------- 0 24.0 0.0 25 25
r 0.8465 24 11 cbr 100 ------- 0 24.0 0.0 31 31
+ 0.8465 11 5 cbr 100 ------- 0 24.0 0.0 31 31
- 0.8465 11 5 cbr 100 ------- 0 24.0 0.0 31 31
+ 0.85 24 11 cbr 100 ------- 0 24.0 0.0 35 35
- 0.85 24 11 cbr 100 ------- 0 24.0 0.0 35 35
r 0.851 11 5 cbr 100 ------- 0 24.0 0.0 30 30
+ 0.851 5 2 cbr 100 ------- 0 24.0 0.0 30 30
- 0.851 5 2 cbr 100 ------- 0 24.0 0.0 30 30
r 0.8538 5 2 cbr 100 ------- 0 24.0 0.0 28 28
+ 0.8538 2 0 cbr 100 ------- 0 24.0 0.0 28 28
- 0.8538 2 0 cbr 100 ------- 0 24.0 0.0 28 28
r 0.8542 2 0 cbr 100 ------- 0 24.0 0.0 26 26
r 0.8565 24 11 cbr 100 ------- 0 24.0 0.0 32 32
+ 0.8565 11 5 cbr 100 ------- 0 24.0 0.0 32 32
- 0.8565 11 5 cbr 100 ------- 0 24.0 0.0 32 32
+ 0.86 24 11 cbr 100 ------- 0 24.0 0.0 36 36
- 0.86 24 11 cbr 100 ------- 0 24.0 0.0 36 36
r 0.861 11 5 cbr 100 ------- 0 24.0 0.0 31 31
+ 0.861 5 2 cbr 100 ------- 0 24.0 0.0 31 31
- 0.861 5 2 cbr 100 ------- 0 24.0 0.0 31 31
r 0.8638 5 2 cbr 100 ------- 0 24.0 0.0 29 29
+ 0.8638 2 0 cbr 100 ------- 0 24.0 0.0 29 29
- 0.8638 2 0 cbr 100 ------- 0 24.0 0.0 29 29
r 0.8642 2 0 cbr 100 ------- 0 24.0 0.0 27 27
r 0.8665 24 11 cbr 100 ------- 0 24.0 0.0 33 33
+ 0.8665 11 5 cbr 100 ------- 0 24.0 0.0 33 33
- 0.8665 11 5 cbr 100 ------- 0 24.0 0.0 33 33
+ 0.87 24 11 cbr 100 ------- 0 24.0 0.0 37 37
- 0.87 24 11 cbr 100 ------- 0 24.0 0.0 37 37
r 0.871 11 5 cbr 100 ------- 0 24.0 0.0 32 32
+ 0.871 5 2 cbr 100 ------- 0 24.0 0.0 32 32
- 0.871 5 2 cbr 100 ------- 0 24.0 0.0 32 32
r 0.8738 5 2 cbr 100 ------- 0 24.0 0.0 30 30
+ 0.8738 2 0 cbr 100 ------- 0 24.0 0.0 30 30
- 0.8738 2 0 cbr 100 ------- 0 24.0 0.0 30 30
r 0.8742 2 0 cbr 100 ------- 0 24.0 0.0 28 28
r 0.8765 24 11 cbr 100 ------- 0 24.0 0.0 34 34
+ 0.8765 11 5 cbr 100 ------- 0 24.0 0.0 34 34
- 0.8765 11 5 cbr 100 ------- 0 24.0 0.0 34 34
+ 0.88 24 11 cbr 100 ------- 0 24.0 0.0 38 38
- 0.88 24 11 cbr 100 ------- 0 24.0 0.0 38 38
r 0.881 11 5 cbr 100 ------- 0 24.0 0.0 33 33
+ 0.881 5 2 cbr 100 ------- 0 24.0 0.0 33 33
- 0.881 5 2 cbr 100 ------- 0 24.0 0.0 33 33
r 0.8838 5 2 cbr 100 ------- 0 24.0 0.0 31 31
+ 0.8838 2 0 cbr 100 ------- 0 24.0 0.0 31 31
- 0.8838 2 0 cbr 100 ------- 0 24.0 0.0 31 31
r 0.8842 2 0 cbr 100 ------- 0 24.0 0.0 29 29
r 0.8865 24 11 cbr 100 ------- 0 24.0 0.0 35 35
+ 0.8865 11 5 cbr 100 ------- 0 24.0 0.0 35 35
- 0.8865 11 5 cbr 100 ------- 0 24.0 0.0 35 35
+ 0.89 24 11 cbr 100 ------- 0 24.0 0.0 39 39
- 0.89 24 11 cbr 100 ------- 0 24.0 0.0 39 39
r 0.891 11 5 cbr 100 ------- 0 24.0 0.0 34 34
+ 0.891 5 2 cbr 100 ------- 0 24.0 0.0 34 34
- 0.891 5 2 cbr 100 ------- 0 24.0 0.0 34 34
r 0.8938 5 2 cbr 100 ------- 0 24.0 0.0 32 32
+ 0.8938 2 0 cbr 100 ------- 0 24.0 0.0 32 32
- 0.8938 2 0 cbr 100 ------- 0 24.0 0.0 32 32
r 0.8942 2 0 cbr 100 ------- 0 24.0 0.0 30 30
r 0.8965 24 11 cbr 100 ------- 0 24.0 0.0 36 36
+ 0.8965 11 5 cbr 100 ------- 0 24.0 0.0 36 36
- 0.8965 11 5 cbr 100 ------- 0 24.0 0.0 36 36
+ 0.9 24 11 cbr 100 ------- 0 24.0 0.0 40 40
- 0.9 24 11 cbr 100 ------- 0 24.0 0.0 40 40
r 0.901 11 5 cbr 100 ------- 0 24.0 0.0 35 35
+ 0.901 5 2 cbr 100 ------- 0 24.0 0.0 35 35
- 0.901 5 2 cbr 100 ------- 0 24.0 0.0 35 35
r 0.9038 5 2 cbr 100 ------- 0 24.0 0.0 33 33
+ 0.9038 2 0 cbr 100 ------- 0 24.0 0.0 33 33
- 0.9038 2 0 cbr 100 ------- 0 24.0 0.0 33 33
r 0.9042 2 0 cbr 100 ------- 0 24.0 0.0 31 31
r 0.9065 24 11 cbr 100 ------- 0 24.0 0.0 37 37
+ 0.9065 11 5 cbr 100 ------- 0 24.0 0.0 37 37
- 0.9065 11 5 cbr 100 ------- 0 24.0 0.0 37 37
+ 0.91 24 11 cbr 100 ------- 0 24.0 0.0 41 41
- 0.91 24 11 cbr 100 ------- 0 24.0 0.0 41 41
r 0.911 11 5 cbr 100 ------- 0 24.0 0.0 36 36
+ 0.911 5 2 cbr 100 ------- 0 24.0 0.0 36 36
- 0.911 5 2 cbr 100 ------- 0 24.0 0.0 36 36
r 0.9138 5 2 cbr 100 ------- 0 24.0 0.0 34 34
+ 0.9138 2 0 cbr 100 ------- 0 24.0 0.0 34 34
- 0.9138 2 0 cbr 100 ------- 0 24.0 0.0 34 34
r 0.9142 2 0 cbr 100 ------- 0 24.0 0.0 32 32
r 0.9165 24 11 cbr 100 ------- 0 24.0 0.0 38 38
+ 0.9165 11 5 cbr 100 ------- 0 24.0 0.0 38 38
- 0.9165 11 5 cbr 100 ------- 0 24.0 0.0 38 38
+ 0.92 24 11 cbr 100 ------- 0 24.0 0.0 42 42
- 0.92 24 11 cbr 100 ------- 0 24.0 0.0 42 42
r 0.921 11 5 cbr 100 ------- 0 24.0 0.0 37 37
+ 0.921 5 2 cbr 100 ------- 0 24.0 0.0 37 37
- 0.921 5 2 cbr 100 ------- 0 24.0 0.0 37 37
r 0.9238 5 2 cbr 100 ------- 0 24.0 0.0 35 35
+ 0.9238 2 0 cbr 100 ------- 0 24.0 0.0 35 35
- 0.9238 2 0 cbr 100 ------- 0 24.0 0.0 35 35
r 0.9242 2 0 cbr 100 ------- 0 24.0 0.0 33 33
r 0.9265 24 11 cbr 100 ------- 0 24.0 0.0 39 39
+ 0.9265 11 5 cbr 100 ------- 0 24.0 0.0 39 39
- 0.9265 11 5 cbr 100 ------- 0 24.0 0.0 39 39
+ 0.93 24 11 cbr 100 ------- 0 24.0 0.0 43 43
- 0.93 24 11 cbr 100 ------- 0 24.0 0.0 43 43
r 0.931 11 5 cbr 100 ------- 0 24.0 0.0 38 38
+ 0.931 5 2 cbr 100 ------- 0 24.0 0.0 38 38
- 0.931 5 2 cbr 100 ------- 0 24.0 0.0 38 38
r 0.9338 5 2 cbr 100 ------- 0 24.0 0.0 36 36
+ 0.9338 2 0 cbr 100 ------- 0 24.0 0.0 36 36
- 0.9338 2 0 cbr 100 ------- 0 24.0 0.0 36 36
r 0.9342 2 0 cbr 100 ------- 0 24.0 0.0 34 34
r 0.9365 24 11 cbr 100 ------- 0 24.0 0.0 40 40
+ 0.9365 11 5 cbr 100 ------- 0 24.0 0.0 40 40
- 0.9365 11 5 cbr 100 ------- 0 24.0 0.0 40 40
+ 0.94 24 11 cbr 100 ------- 0 24.0 0.0 44 44
- 0.94 24 11 cbr 100 ------- 0 24.0 0.0 44 44
r 0.941 11 5 cbr 100 ------- 0 24.0 0.0 39 39
+ 0.941 5 2 cbr 100 ------- 0 24.0 0.0 39 39
- 0.941 5 2 cbr 100 ------- 0 24.0 0.0 39 39
r 0.9438 5 2 cbr 100 ------- 0 24.0 0.0 37 37
+ 0.9438 2 0 cbr 100 ------- 0 24.0 0.0 37 37
- 0.9438 2 0 cbr 100 ------- 0 24.0 0.0 37 37
r 0.9442 2 0 cbr 100 ------- 0 24.0 0.0 35 35
r 0.9465 24 11 cbr 100 ------- 0 24.0 0.0 41 41
+ 0.9465 11 5 cbr 100 ------- 0 24.0 0.0 41 41
- 0.9465 11 5 cbr 100 ------- 0 24.0 0.0 41 41
+ 0.95 24 11 cbr 100 ------- 0 24.0 0.0 45 45
- 0.95 24 11 cbr 100 ------- 0 24.0 0.0 45 45
r 0.951 11 5 cbr 100 ------- 0 24.0 0.0 40 40
+ 0.951 5 2 cbr 100 ------- 0 24.0 0.0 40 40
- 0.951 5 2 cbr 100 ------- 0 24.0 0.0 40 40
r 0.9538 5 2 cbr 100 ------- 0 24.0 0.0 38 38
+ 0.9538 2 0 cbr 100 ------- 0 24.0 0.0 38 38
- 0.9538 2 0 cbr 100 ------- 0 24.0 0.0 38 38
r 0.9542 2 0 cbr 100 ------- 0 24.0 0.0 36 36
r 0.9565 24 11 cbr 100 ------- 0 24.0 0.0 42 42
+ 0.9565 11 5 cbr 100 ------- 0 24.0 0.0 42 42
- 0.9565 11 5 cbr 100 ------- 0 24.0 0.0 42 42
+ 0.96 24 11 cbr 100 ------- 0 24.0 0.0 46 46
- 0.96 24 11 cbr 100 ------- 0 24.0 0.0 46 46
r 0.961 11 5 cbr 100 ------- 0 24.0 0.0 41 41
+ 0.961 5 2 cbr 100 ------- 0 24.0 0.0 41 41
- 0.961 5 2 cbr 100 ------- 0 24.0 0.0 41 41
r 0.9638 5 2 cbr 100 ------- 0 24.0 0.0 39 39
+ 0.9638 2 0 cbr 100 ------- 0 24.0 0.0 39 39
- 0.9638 2 0 cbr 100 ------- 0 24.0 0.0 39 39
r 0.9642 2 0 cbr 100 ------- 0 24.0 0.0 37 37
r 0.9665 24 11 cbr 100 ------- 0 24.0 0.0 43 43
+ 0.9665 11 5 cbr 100 ------- 0 24.0 0.0 43 43
- 0.9665 11 5 cbr 100 ------- 0 24.0 0.0 43 43
+ 0.97 24 11 cbr 100 ------- 0 24.0 0.0 47 47
- 0.97 24 11 cbr 100 ------- 0 24.0 0.0 47 47
r 0.971 11 5 cbr 100 ------- 0 24.0 0.0 42 42
+ 0.971 5 2 cbr 100 ------- 0 24.0 0.0 42 42
- 0.971 5 2 cbr 100 ------- 0 24.0 0.0 42 42
r 0.9738 5 2 cbr 100 ------- 0 24.0 0.0 40 40
+ 0.9738 2 0 cbr 100 ------- 0 24.0 0.0 40 40
- 0.9738 2 0 cbr 100 ------- 0 24.0 0.0 40 40
r 0.9742 2 0 cbr 100 ------- 0 24.0 0.0 38 38
r 0.9765 24 11 cbr 100 ------- 0 24.0 0.0 44 44
+ 0.9765 11 5 cbr 100 ------- 0 24.0 0.0 44 44
- 0.9765 11 5 cbr 100 ------- 0 24.0 0.0 44 44
+ 0.98 24 11 cbr 100 ------- 0 24.0 0.0 48 48
- 0.98 24 11 cbr 100 ------- 0 24.0 0.0 48 48
r 0.981 11 5 cbr 100 ------- 0 24.0 0.0 43 43
+ 0.981 5 2 cbr 100 ------- 0 24.0 0.0 43 43
- 0.981 5 2 cbr 100 ------- 0 24.0 0.0 43 43
r 0.9838 5 2 cbr 100 ------- 0 24.0 0.0 41 41
+ 0.9838 2 0 cbr 100 ------- 0 24.0 0.0 41 41
- 0.9838 2 0 cbr 100 ------- 0 24.0 0.0 41 41
r 0.9842 2 0 cbr 100 ------- 0 24.0 0.0 39 39
r 0.9865 24 11 cbr 100 ------- 0 24.0 0.0 45 45
+ 0.9865 11 5 cbr 100 ------- 0 24.0 0.0 45 45
- 0.9865 11 5 cbr 100 ------- 0 24.0 0.0 45 45
+ 0.99 24 11 cbr 100 ------- 0 24.0 0.0 49 49
- 0.99 24 11 cbr 100 ------- 0 24.0 0.0 49 49
r 0.991 11 5 cbr 100 ------- 0 24.0 0.0 44 44
+ 0.991 5 2 cbr 100 ------- 0 24.0 0.0 44 44
- 0.991 5 2 cbr 100 ------- 0 24.0 0.0 44 44
r 0.9938 5 2 cbr 100 ------- 0 24.0 0.0 42 42
+ 0.9938 2 0 cbr 100 ------- 0 24.0 0.0 42 42
- 0.9938 2 0 cbr 100 ------- 0 24.0 0.0 42 42
r 0.9942 2 0 cbr 100 ------- 0 24.0 0.0 40 40
r 0.9965 24 11 cbr 100 ------- 0 24.0 0.0 46 46
+ 0.9965 11 5 cbr 100 ------- 0 24.0 0.0 46 46
- 0.9965 11 5 cbr 100 ------- 0 24.0 0.0 46 46
+ 1 24 11 cbr 100 ------- 0 24.0 0.0 50 50
- 1 24 11 cbr 100 ------- 0 24.0 0.0 50 50
r 1.001 11 5 cbr 100 ------- 0 24.0 0.0 45 45
+ 1.001 5 2 cbr 100 ------- 0 24.0 0.0 45 45
- 1.001 5 2 cbr 100 ------- 0 24.0 0.0 45 45
r 1.0038 5 2 cbr 100 ------- 0 24.0 0.0 43 43
+ 1.0038 2 0 cbr 100 ------- 0 24.0 0.0 43 43
- 1.0038 2 0 cbr 100 ------- 0 24.0 0.0 43 43
r 1.0042 2 0 cbr 100 ------- 0 24.0 0.0 41 41
r 1.0065 24 11 cbr 100 ------- 0 24.0 0.0 47 47
+ 1.0065 11 5 cbr 100 ------- 0 24.0 0.0 47 47
- 1.0065 11 5 cbr 100 ------- 0 24.0 0.0 47 47
+ 1.01 24 11 cbr 100 ------- 0 24.0 0.0 51 51
- 1.01 24 11 cbr 100 ------- 0 24.0 0.0 51 51
r 1.011 11 5 cbr 100 ------- 0 24.0 0.0 46 46
+ 1.011 5 2 cbr 100 ------- 0 24.0 0.0 46 46
- 1.011 5 2 cbr 100 ------- 0 24.0 0.0 46 46
r 1.0138 5 2 cbr 100 ------- 0 24.0 0.0 44 44
+ 1.0138 2 0 cbr 100 ------- 0 24.0 0.0 44 44
- 1.0138 2 0 cbr 100 ------- 0 24.0 0.0 44 44
r 1.0142 2 0 cbr 100 ------- 0 24.0 0.0 42 42
r 1.0165 24 11 cbr 100 ------- 0 24.0 0.0 48 48
+ 1.0165 11 5 cbr 100 ------- 0 24.0 0.0 48 48
- 1.0165 11 5 cbr 100 ------- 0 24.0 0.0 48 48
+ 1.02 24 11 cbr 100 ------- 0 24.0 0.0 52 52
- 1.02 24 11 cbr 100 ------- 0 24.0 0.0 52 52
r 1.021 11 5 cbr 100 ------- 0 24.0 0.0 47 47
+ 1.021 5 2 cbr 100 ------- 0 24.0 0.0 47 47
- 1.021 5 2 cbr 100 ------- 0 24.0 0.0 47 47
r 1.0238 5 2 cbr 100 ------- 0 24.0 0.0 45 45
+ 1.0238 2 0 cbr 100 ------- 0 24.0 0.0 45 45
- 1.0238 2 0 cbr 100 ------- 0 24.0 0.0 45 45
r 1.0242 2 0 cbr 100 ------- 0 24.0 0.0 43 43
r 1.0265 24 11 cbr 100 ------- 0 24.0 0.0 49 49
+ 1.0265 11 5 cbr 100 ------- 0 24.0 0.0 49 49
- 1.0265 11 5 cbr 100 ------- 0 24.0 0.0 49 49
+ 1.03 24 11 cbr 100 ------- 0 24.0 0.0 53 53
- 1.03 24 11 cbr 100 ------- 0 24.0 0.0 53 53
r 1.031 11 5 cbr 100 ------- 0 24.0 0.0 48 48
+ 1.031 5 2 cbr 100 ------- 0 24.0 0.0 48 48
- 1.031 5 2 cbr 100 ------- 0 24.0 0.0 48 48
r 1.0338 5 2 cbr 100 ------- 0 24.0 0.0 46 46
+ 1.0338 2 0 cbr 100 ------- 0 24.0 0.0 46 46
- 1.0338 2 0 cbr 100 ------- 0 24.0 0.0 46 46
r 1.0342 2 0 cbr 100 ------- 0 24.0 0.0 44 44
r 1.0365 24 11 cbr 100 ------- 0 24.0 0.0 50 50
+ 1.0365 11 5 cbr 100 ------- 0 24.0 0.0 50 50
- 1.0365 11 5 cbr 100 ------- 0 24.0 0.0 50 50
+ 1.04 24 11 cbr 100 ------- 0 24.0 0.0 54 54
- 1.04 24 11 cbr 100 ------- 0 24.0 0.0 54 54
r 1.041 11 5 cbr 100 ------- 0 24.0 0.0 49 49
+ 1.041 5 2 cbr 100 ------- 0 24.0 0.0 49 49
- 1.041 5 2 cbr 100 ------- 0 24.0 0.0 49 49
r 1.0438 5 2 cbr 100 ------- 0 24.0 0.0 47 47
+ 1.0438 2 0 cbr 100 ------- 0 24.0 0.0 47 47
- 1.0438 2 0 cbr 100 ------- 0 24.0 0.0 47 47
r 1.0442 2 0 cbr 100 ------- 0 24.0 0.0 45 45
r 1.0465 24 11 cbr 100 ------- 0 24.0 0.0 51 51
+ 1.0465 11 5 cbr 100 ------- 0 24.0 0.0 51 51
- 1.0465 11 5 cbr 100 ------- 0 24.0 0.0 51 51
+ 1.05 24 11 cbr 100 ------- 0 24.0 0.0 55 55
- 1.05 24 11 cbr 100 ------- 0 24.0 0.0 55 55
r 1.051 11 5 cbr 100 ------- 0 24.0 0.0 50 50
+ 1.051 5 2 cbr 100 ------- 0 24.0 0.0 50 50
- 1.051 5 2 cbr 100 ------- 0 24.0 0.0 50 50
r 1.0538 5 2 cbr 100 ------- 0 24.0 0.0 48 48
+ 1.0538 2 0 cbr 100 ------- 0 24.0 0.0 48 48
- 1.0538 2 0 cbr 100 ------- 0 24.0 0.0 48 48
r 1.0542 2 0 cbr 100 ------- 0 24.0 0.0 46 46
r 1.0565 24 11 cbr 100 ------- 0 24.0 0.0 52 52
+ 1.0565 11 5 cbr 100 ------- 0 24.0 0.0 52 52
- 1.0565 11 5 cbr 100 ------- 0 24.0 0.0 52 52
+ 1.06 24 11 cbr 100 ------- 0 24.0 0.0 56 56
- 1.06 24 11 cbr 100 ------- 0 24.0 0.0 56 56
r 1.061 11 5 cbr 100 ------- 0 24.0 0.0 51 51
+ 1.061 5 2 cbr 100 ------- 0 24.0 0.0 51 51
- 1.061 5 2 cbr 100 ------- 0 24.0 0.0 51 51
r 1.0638 5 2 cbr 100 ------- 0 24.0 0.0 49 49
+ 1.0638 2 0 cbr 100 ------- 0 24.0 0.0 49 49
- 1.0638 2 0 cbr 100 ------- 0 24.0 0.0 49 49
r 1.0642 2 0 cbr 100 ------- 0 24.0 0.0 47 47
r 1.0665 24 11 cbr 100 ------- 0 24.0 0.0 53 53
+ 1.0665 11 5 cbr 100 ------- 0 24.0 0.0 53 53
- 1.0665 11 5 cbr 100 ------- 0 24.0 0.0 53 53
+ 1.07 24 11 cbr 100 ------- 0 24.0 0.0 57 57
- 1.07 24 11 cbr 100 ------- 0 24.0 0.0 57 57
r 1.071 11 5 cbr 100 ------- 0 24.0 0.0 52 52
+ 1.071 5 2 cbr 100 ------- 0 24.0 0.0 52 52
- 1.071 5 2 cbr 100 ------- 0 24.0 0.0 52 52
r 1.0738 5 2 cbr 100 ------- 0 24.0 0.0 50 50
+ 1.0738 2 0 cbr 100 ------- 0 24.0 0.0 50 50
- 1.0738 2 0 cbr 100 ------- 0 24.0 0.0 50 50
r 1.0742 2 0 cbr 100 ------- 0 24.0 0.0 48 48
r 1.0765 24 11 cbr 100 ------- 0 24.0 0.0 54 54
+ 1.0765 11 5 cbr 100 ------- 0 24.0 0.0 54 54
- 1.0765 11 5 cbr 100 ------- 0 24.0 0.0 54 54
+ 1.08 24 11 cbr 100 ------- 0 24.0 0.0 58 58
- 1.08 24 11 cbr 100 ------- 0 24.0 0.0 58 58
r 1.081 11 5 cbr 100 ------- 0 24.0 0.0 53 53
+ 1.081 5 2 cbr 100 ------- 0 24.0 0.0 53 53
- 1.081 5 2 cbr 100 ------- 0 24.0 0.0 53 53
r 1.0838 5 2 cbr 100 ------- 0 24.0 0.0 51 51
+ 1.0838 2 0 cbr 100 ------- 0 24.0 0.0 51 51
- 1.0838 2 0 cbr 100 ------- 0 24.0 0.0 51 51
r 1.0842 2 0 cbr 100 ------- 0 24.0 0.0 49 49
r 1.0865 24 11 cbr 100 ------- 0 24.0 0.0 55 55
+ 1.0865 11 5 cbr 100 ------- 0 24.0 0.0 55 55
- 1.0865 11 5 cbr 100 ------- 0 24.0 0.0 55 55
+ 1.09 24 11 cbr 100 ------- 0 24.0 0.0 59 59