+ 0.5 8 3 cbr 100 ------- 0 8.0 0.0 0 0
- 0.5 8 3 cbr 100 ------- 0 8.0 0.0 0 0
+ 0.51 8 3 cbr 100 ------- 0 8.0 0.0 1 1
- 0.51 8 3 cbr 100 ------- 0 8.0 0.0 1 1
+ 0.52 8 3 cbr 100 ------- 0 8.0 0.0 2 2
- 0.52 8 3 cbr 100 ------- 0 8.0 0.0 2 2
r 0.5228 8 3 cbr 100 ------- 0 8.0 0.0 0 0
+ 0.5228 3 1 cbr 100 ------- 0 8.0 0.0 0 0
- 0.5228 3 1 cbr 100 ------- 0 8.0 0.0 0 0
+ 0.53 8 3 cbr 100 ------- 0 8.0 0.0 3 3
- 0.53 8 3 cbr 100 ------- 0 8.0 0.0 3 3
r 0.5328 8 3 cbr 100 ------- 0 8.0 0.0 1 1
+ 0.5328 3 1 cbr 100 ------- 0 8.0 0.0 1 1
- 0.5328 3 1 cbr 100 ------- 0 8.0 0.0 1 1
r 0.5373 3 1 cbr 100 ------- 0 8.0 0.0 0 0
+ 0.5373 1 0 cbr 100 ------- 0 8.0 0.0 0 0
- 0.5373 1 0 cbr 100 ------- 0 8.0 0.0 0 0
+ 0.54 8 3 cbr 100 ------- 0 8.0 0.0 4 4
- 0.54 8 3 cbr 100 ------- 0 8.0 0.0 4 4
r 0.5428 8 3 cbr 100 ------- 0 8.0 0.0 2 2
+ 0.5428 3 1 cbr 100 ------- 0 8.0 0.0 2 2
- 0.5428 3 1 cbr 100 ------- 0 8.0 0.0 2 2
r 0.5473 3 1 cbr 100 ------- 0 8.0 0.0 1 1
+ 0.5473 1 0 cbr 100 ------- 0 8.0 0.0 1 1
- 0.5473 1 0 cbr 100 ------- 0 8.0 0.0 1 1
r 0.5477 1 0 cbr 100 ------- 0 8.0 0.0 0 0
+ 0.55 8 3 cbr 100 ------- 0 8.0 0.0 5 5
- 0.55 8 3 cbr 100 ------- 0 8.0 0.0 5 5
r 0.5528 8 3 cbr 100 ------- 0 8.0 0.0 3 3
+ 0.5528 3 1 cbr 100 ------- 0 8.0 0.0 3 3
- 0.5528 3 1 cbr 100 ------- 0 8.0 0.0 3 3
r 0.5573 3 1 cbr 100 ------- 0 8.0 0.0 2 2
+ 0.5573 1 0 cbr 100 ------- 0 8.0 0.0 2 2
- 0.5573 1 0 cbr 100 ------- 0 8.0 0.0 2 2
r 0.5577 1 0 cbr 100 ------- 0 8.0 0.0 1 1
+ 0.56 8 3 cbr 100 ------- 0 8.0 0.0 6 6
- 0.56 8 3 cbr 100 ------- 0 8.0 0.0 6 6
r 0.5628 8 3 cbr 100 ------- 0 8.0 0.0 4 4
+ 0.5628 3 1 cbr 100 ------- 0 8.0 0.0 4 4
- 0.5628 3 1 cbr 100 ------- 0 8.0 0.0 4 4
r 0.5673 3 1 cbr 100 ------- 0 8.0 0.0 3 3
+ 0.5673 1 0 cbr 100 ------- 0 8.0 0.0 3 3
- 0.5673 1 0 cbr 100 ------- 0 8.0 0.0 3 3
r 0.5677 1 0 cbr 100 ------- 0 8.0 0.0 2 2
+ 0.57 8 3 cbr 100 ------- 0 8.0 0.0 7 7
- 0.57 8 3 cbr 100 ------- 0 8.0 0.0 7 7
r 0.5728 8 3 cbr 100 ------- 0 8.0 0.0 5 5
+ 0.5728 3 1 cbr 100 ------- 0 8.0 0.0 5 5
- 0.5728 3 1 cbr 100 ------- 0 8.0 0.0 5 5
r 0.5773 3 1 cbr 100 ------- 0 8.0 0.0 4 4
+ 0.5773 1 0 cbr 100 ------- 0 8.0 0.0 4 4
- 0.5773 1 0 cbr 100 ------- 0 8.0 0.0 4 4
r 0.5777 1 0 cbr 100 ------- 0 8.0 0.0 3 3
+ 0.58 8 3 cbr 100 ------- 0 8.0 0.0 8 8
- 0.58 8 3 cbr 100 ------- 0 8.0 0.0 8 8
r 0.5828 8 3 cbr 100 ------- 0 8.0 0.0 6 6
+ 0.5828 3 1 cbr 100 ------- 0 8.0 0.0 6 6
- 0.5828 3 1 cbr 100 ------- 0 8.0 0.0 6 6
r 0.5873 3 1 cbr 100 ------- 0 8.0 0.0 5 5
+ 0.5873 1 0 cbr 100 ------- 0 8.0 0.0 5 5
- 0.5873 1 0 cbr 100 ------- 0 8.0 0.0 5 5
r 0.5877 1 0 cbr 100 ------- 0 8.0 0.0 4 4
+ 0.59 8 3 cbr 100 ------- 0 8.0 0.0 9 9
- 0.59 8 3 cbr 100 ------- 0 8.0 0.0 9 9
r 0.5928 8 3 cbr 100 ------- 0 8.0 0.0 7 7
+ 0.5928 3 1 cbr 100 ------- 0 8.0 0.0 7 7
- 0.5928 3 1 cbr 100 ------- 0 8.0 0.0 7 7
r 0.5973 3 1 cbr 100 ------- 0 8.0 0.0 6 6
+ 0.5973 1 0 cbr 100 ------- 0 8.0 0.0 6 6
- 0.5973 1 0 cbr 100 ------- 0 8.0 0.0 6 6
r 0.5977 1 0 cbr 100 ------- 0 8.0 0.0 5 5
+ 0.6 8 3 cbr 100 ------- 0 8.0 0.0 10 10
- 0.6 8 3 cbr 100 ------- 0 8.0 0.0 10 10
r 0.6028 8 3 cbr 100 ------- 0 8.0 0.0 8 8
+ 0.6028 3 1 cbr 100 ------- 0 8.0 0.0 8 8
- 0.6028 3 1 cbr 100 ------- 0 8.0 0.0 8 8
r 0.6073 3 1 cbr 100 ------- 0 8.0 0.0 7 7
+ 0.6073 1 0 cbr 100 ------- 0 8.0 0.0 7 7
- 0.6073 1 0 cbr 100 ------- 0 8.0 0.0 7 7
r 0.6077 1 0 cbr 100 ------- 0 8.0 0.0 6 6
+ 0.61 8 3 cbr 100 ------- 0 8.0 0.0 11 11
- 0.61 8 3 cbr 100 ------- 0 8.0 0.0 11 11
r 0.6128 8 3 cbr 100 ------- 0 8.0 0.0 9 9
+ 0.6128 3 1 cbr 100 ------- 0 8.0 0.0 9 9
- 0.6128 3 1 cbr 100 ------- 0 8.0 0.0 9 9
r 0.6173 3 1 cbr 100 ------- 0 8.0 0.0 8 8
+ 0.6173 1 0 cbr 100 ------- 0 8.0 0.0 8 8
- 0.6173 1 0 cbr 100 ------- 0 8.0 0.0 8 8
r 0.6177 1 0 cbr 100 ------- 0 8.0 0.0 7 7
+ 0.62 8 3 cbr 100 ------- 0 8.0 0.0 12 12
- 0.62 8 3 cbr 100 ------- 0 8.0 0.0 12 12
r 0.6228 8 3 cbr 100 ------- 0 8.0 0.0 10 10
+ 0.6228 3 1 cbr 100 ------- 0 8.0 0.0 10 10
- 0.6228 3 1 cbr 100 ------- 0 8.0 0.0 10 10
r 0.6273 3 1 cbr 100 ------- 0 8.0 0.0 9 9
+ 0.6273 1 0 cbr 100 ------- 0 8.0 0.0 9 9
- 0.6273 1 0 cbr 100 ------- 0 8.0 0.0 9 9
r 0.6277 1 0 cbr 100 ------- 0 8.0 0.0 8 8
+ 0.63 8 3 cbr 100 ------- 0 8.0 0.0 13 13
- 0.63 8 3 cbr 100 ------- 0 8.0 0.0 13 13
r 0.6328 8 3 cbr 100 ------- 0 8.0 0.0 11 11
+ 0.6328 3 1 cbr 100 ------- 0 8.0 0.0 11 11
- 0.6328 3 1 cbr 100 ------- 0 8.0 0.0 11 11
r 0.6373 3 1 cbr 100 ------- 0 8.0 0.0 10 10
+ 0.6373 1 0 cbr 100 ------- 0 8.0 0.0 10 10
- 0.6373 1 0 cbr 100 ------- 0 8.0 0.0 10 10
r 0.6377 1 0 cbr 100 ------- 0 8.0 0.0 9 9
+ 0.64 8 3 cbr 100 ------- 0 8.0 0.0 14 14
- 0.64 8 3 cbr 100 ------- 0 8.0 0.0 14 14
r 0.6428 8 3 cbr 100 ------- 0 8.0 0.0 12 12
+ 0.6428 3 1 cbr 100 ------- 0 8.0 0.0 12 12
- 0.6428 3 1 cbr 100 ------- 0 8.0 0.0 12 12
r 0.6473 3 1 cbr 100 ------- 0 8.0 0.0 11 11
+ 0.6473 1 0 cbr 100 ------- 0 8.0 0.0 11 11
- 0.6473 1 0 cbr 100 ------- 0 8.0 0.0 11 11
r 0.6477 1 0 cbr 100 ------- 0 8.0 0.0 10 10
+ 0.65 8 3 cbr 100 ------- 0 8.0 0.0 15 15
- 0.65 8 3 cbr 100 ------- 0 8.0 0.0 15 15
r 0.6528 8 3 cbr 100 ------- 0 8.0 0.0 13 13
+ 0.6528 3 1 cbr 100 ------- 0 8.0 0.0 13 13
- 0.6528 3 1 cbr 100 ------- 0 8.0 0.0 13 13
r 0.6573 3 1 cbr 100 ------- 0 8.0 0.0 12 12
+ 0.6573 1 0 cbr 100 ------- 0 8.0 0.0 12 12
- 0.6573 1 0 cbr 100 ------- 0 8.0 0.0 12 12
r 0.6577 1 0 cbr 100 ------- 0 8.0 0.0 11 11
+ 0.66 8 3 cbr 100 ------- 0 8.0 0.0 16 16
- 0.66 8 3 cbr 100 ------- 0 8.0 0.0 16 16
r 0.6628 8 3 cbr 100 ------- 0 8.0 0.0 14 14
+ 0.6628 3 1 cbr 100 ------- 0 8.0 0.0 14 14
- 0.6628 3 1 cbr 100 ------- 0 8.0 0.0 14 14
r 0.6673 3 1 cbr 100 ------- 0 8.0 0.0 13 13
+ 0.6673 1 0 cbr 100 ------- 0 8.0 0.0 13 13
- 0.6673 1 0 cbr 100 ------- 0 8.0 0.0 13 13
r 0.6677 1 0 cbr 100 ------- 0 8.0 0.0 12 12
+ 0.67 8 3 cbr 100 ------- 0 8.0 0.0 17 17
- 0.67 8 3 cbr 100 ------- 0 8.0 0.0 17 17
r 0.6728 8 3 cbr 100 ------- 0 8.0 0.0 15 15
+ 0.6728 3 1 cbr 100 ------- 0 8.0 0.0 15 15
- 0.6728 3 1 cbr 100 ------- 0 8.0 0.0 15 15
r 0.6773 3 1 cbr 100 ------- 0 8.0 0.0 14 14
+ 0.6773 1 0 cbr 100 ------- 0 8.0 0.0 14 14
- 0.6773 1 0 cbr 100 ------- 0 8.0 0.0 14 14
r 0.6777 1 0 cbr 100 ------- 0 8.0 0.0 13 13
+ 0.68 8 3 cbr 100 ------- 0 8.0 0.0 18 18
- 0.68 8 3 cbr 100 ------- 0 8.0 0.0 18 18
r 0.6828 8 3 cbr 100 ------- 0 8.0 0.0 16 16
+ 0.6828 3 1 cbr 100 ------- 0 8.0 0.0 16 16
- 0.6828 3 1 cbr 100 ------- 0 8.0 0.0 16 16
r 0.6873 3 1 cbr 100 ------- 0 8.0 0.0 15 15
+ 0.6873 1 0 cbr 100 ------- 0 8.0 0.0 15 15
- 0.6873 1 0 cbr 100 ------- 0 8.0 0.0 15 15
r 0.6877 1 0 cbr 100 ------- 0 8.0 0.0 14 14
+ 0.69 8 3 cbr 100 ------- 0 8.0 0.0 19 19
- 0.69 8 3 cbr 100 ------- 0 8.0 0.0 19 19
r 0.6928 8 3 cbr 100 ------- 0 8.0 0.0 17 17
+ 0.6928 3 1 cbr 100 ------- 0 8.0 0.0 17 17
- 0.6928 3 1 cbr 100 ------- 0 8.0 0.0 17 17
r 0.6973 3 1 cbr 100 ------- 0 8.0 0.0 16 16
+ 0.6973 1 0 cbr 100 ------- 0 8.0 0.0 16 16
- 0.6973 1 0 cbr 100 ------- 0 8.0 0.0 16 16
r 0.6977 1 0 cbr 100 ------- 0 8.0 0.0 15 15
+ 0.7 8 3 cbr 100 ------- 0 8.0 0.0 20 20
- 0.7 8 3 cbr 100 ------- 0 8.0 0.0 20 20
r 0.7028 8 3 cbr 100 ------- 0 8.0 0.0 18 18
+ 0.7028 3 1 cbr 100 ------- 0 8.0 0.0 18 18
- 0.7028 3 1 cbr 100 ------- 0 8.0 0.0 18 18
r 0.7073 3 1 cbr 100 ------- 0 8.0 0.0 17 17
+ 0.7073 1 0 cbr 100 ------- 0 8.0 0.0 17 17
- 0.7073 1 0 cbr 100 ------- 0 8.0 0.0 17 17
r 0.7077 1 0 cbr 100 ------- 0 8.0 0.0 16 16
+ 0.71 8 3 cbr 100 ------- 0 8.0 0.0 21 21
- 0.71 8 3 cbr 100 ------- 0 8.0 0.0 21 21
r 0.7128 8 3 cbr 100 ------- 0 8.0 0.0 19 19
+ 0.7128 3 1 cbr 100 ------- 0 8.0 0.0 19 19
- 0.7128 3 1 cbr 100 ------- 0 8.0 0.0 19 19
r 0.7173 3 1 cbr 100 ------- 0 8.0 0.0 18 18
+ 0.7173 1 0 cbr 100 ------- 0 8.0 0.0 18 18
- 0.7173 1 0 cbr 100 ------- 0 8.0 0.0 18 18
r 0.7177 1 0 cbr 100 ------- 0 8.0 0.0 17 17
+ 0.72 8 3 cbr 100 ------- 0 8.0 0.0 22 22
- 0.72 8 3 cbr 100 ------- 0 8.0 0.0 22 22
r 0.7228 8 3 cbr 100 ------- 0 8.0 0.0 20 20
+ 0.7228 3 1 cbr 100 ------- 0 8.0 0.0 20 20
- 0.7228 3 1 cbr 100 ------- 0 8.0 0.0 20 20
r 0.7273 3 1 cbr 100 ------- 0 8.0 0.0 19 19
+ 0.7273 1 0 cbr 100 ------- 0 8.0 0.0 19 19
- 0.7273 1 0 cbr 100 ------- 0 8.0 0.0 19 19
r 0.7277 1 0 cbr 100 ------- 0 8.0 0.0 18 18
+ 0.73 8 3 cbr 100 ------- 0 8.0 0.0 23 23
- 0.73 8 3 cbr 100 ------- 0 8.0 0.0 23 23
r 0.7328 8 3 cbr 100 ------- 0 8.0 0.0 21 21
+ 0.7328 3 1 cbr 100 ------- 0 8.0 0.0 21 21
- 0.7328 3 1 cbr 100 ------- 0 8.0 0.0 21 21
r 0.7373 3 1 cbr 100 ------- 0 8.0 0.0 20 20
+ 0.7373 1 0 cbr 100 ------- 0 8.0 0.0 20 20
- 0.7373 1 0 cbr 100 ------- 0 8.0 0.0 20 20
r 0.7377 1 0 cbr 100 ------- 0 8.0 0.0 19 19
+ 0.74 8 3 cbr 100 ------- 0 8.0 0.0 24 24
- 0.74 8 3 cbr 100 ------- 0 8.0 0.0 24 24
r 0.7428 8 3 cbr 100 ------- 0 8.0 0.0 22 22
+ 0.7428 3 1 cbr 100 ------- 0 8.0 0.0 22 22
- 0.7428 3 1 cbr 100 ------- 0 8.0 0.0 22 22
r 0.7473 3 1 cbr 100 ------- 0 8.0 0.0 21 21
+ 0.7473 1 0 cbr 100 ------- 0 8.0 0.0 21 21
- 0.7473 1 0 cbr 100 ------- 0 8.0 0.0 21 21
r 0.7477 1 0 cbr 100 ------- 0 8.0 0.0 20 20
+ 0.75 8 3 cbr 100 ------- 0 8.0 0.0 25 25
- 0.75 8 3 cbr 100 ------- 0 8.0 0.0 25 25
r 0.7528 8 3 cbr 100 ------- 0 8.0 0.0 23 23
+ 0.7528 3 1 cbr 100 ------- 0 8.0 0.0 23 23
- 0.7528 3 1 cbr 100 ------- 0 8.0 0.0 23 23
r 0.7573 3 1 cbr 100 ------- 0 8.0 0.0 22 22
+ 0.7573 1 0 cbr 100 ------- 0 8.0 0.0 22 22
- 0.7573 1 0 cbr 100 ------- 0 8.0 0.0 22 22
r 0.7577 1 0 cbr 100 ------- 0 8.0 0.0 21 21
+ 0.76 8 3 cbr 100 ------- 0 8.0 0.0 26 26
- 0.76 8 3 cbr 100 ------- 0 8.0 0.0 26 26
r 0.7628 8 3 cbr 100 ------- 0 8.0 0.0 24 24
+ 0.7628 3 1 cbr 100 ------- 0 8.0 0.0 24 24
- 0.7628 3 1 cbr 100 ------- 0 8.0 0.0 24 24
r 0.7673 3 1 cbr 100 ------- 0 8.0 0.0 23 23
+ 0.7673 1 0 cbr 100 ------- 0 8.0 0.0 23 23
- 0.7673 1 0 cbr 100 ------- 0 8.0 0.0 23 23
r 0.7677 1 0 cbr 100 ------- 0 8.0 0.0 22 22
+ 0.77 8 3 cbr 100 ------- 0 8.0 0.0 27 27
- 0.77 8 3 cbr 100 ------- 0 8.0 0.0 27 27
r 0.7728 8 3 cbr 100 ------- 0 8.0 0.0 25 25
+ 0.7728 3 1 cbr 100 ------- 0 8.0 0.0 25 25
- 0.7728 3 1 cbr 100 ------- 0 8.0 0.0 25 25
r 0.7773 3 1 cbr 100 ------- 0 8.0 0.0 24 24
+ 0.7773 1 0 cbr 100 ------- 0 8.0 0.0 24 24
- 0.7773 1 0 cbr 100 ------- 0 8.0 0.0 24 24
r 0.7777 1 0 cbr 100 ------- 0 8.0 0.0 23 23
+ 0.78 8 3 cbr 100 ------- 0 8.0 0.0 28 28
- 0.78 8 3 cbr 100 ------- 0 8.0 0.0 28 28
r 0.7828 8 3 cbr 100 ------- 0 8.0 0.0 26 26
+ 0.7828 3 1 cbr 100 ------- 0 8.0 0.0 26 26
- 0.7828 3 1 cbr 100 ------- 0 8.0 0.0 26 26
r 0.7873 3 1 cbr 100 ------- 0 8.0 0.0 25 25
+ 0.7873 1 0 cbr 100 ------- 0 8.0 0.0 25 25
- 0.7873 1 0 cbr 100 ------- 0 8.0 0.0 25 25
r 0.7877 1 0 cbr 100 ------- 0 8.0 0.0 24 24
+ 0.79 8 3 cbr 100 ------- 0 8.0 0.0 29 29
- 0.79 8 3 cbr 100 ------- 0 8.0 0.0 29 29
r 0.7928 8 3 cbr 100 ------- 0 8.0 0.0 27 27
+ 0.7928 3 1 cbr 100 ------- 0 8.0 0.0 27 27
- 0.7928 3 1 cbr 100 ------- 0 8.0 0.0 27 27
r 0.7973 3 1 cbr 100 ------- 0 8.0 0.0 26 26
+ 0.7973 1 0 cbr 100 ------- 0 8.0 0.0 26 26
- 0.7973 1 0 cbr 100 ------- 0 8.0 0.0 26 26
r 0.7977 1 0 cbr 100 ------- 0 8.0 0.0 25 25
+ 0.8 8 3 cbr 100 ------- 0 8.0 0.0 30 30
- 0.8 8 3 cbr 100 ------- 0 8.0 0.0 30 30
r 0.8028 8 3 cbr 100 ------- 0 8.0 0.0 28 28
+ 0.8028 3 1 cbr 100 ------- 0 8.0 0.0 28 28
- 0.8028 3 1 cbr 100 ------- 0 8.0 0.0 28 28
r 0.8073 3 1 cbr 100 ------- 0 8.0 0.0 27 27
+ 0.8073 1 0 cbr 100 ------- 0 8.0 0.0 27 27
- 0.8073 1 0 cbr 100 ------- 0 8.0 0.0 27 27
r 0.8077 1 0 cbr 100 ------- 0 8.0 0.0 26 26
+ 0.81 8 3 cbr 100 ------- 0 8.0 0.0 31 31
- 0.81 8 3 cbr 100 ------- 0 8.0 0.0 31 31
r 0.8128 8 3 cbr 100 ------- 0 8.0 0.0 29 29
+ 0.8128 3 1 cbr 100 ------- 0 8.0 0.0 29 29
- 0.8128 3 1 cbr 100 ------- 0 8.0 0.0 29 29
r 0.8173 3 1 cbr 100 ------- 0 8.0 0.0 28 28
+ 0.8173 1 0 cbr 100 ------- 0 8.0 0.0 28 28
- 0.8173 1 0 cbr 100 ------- 0 8.0 0.0 28 28
r 0.8177 1 0 cbr 100 ------- 0 8.0 0.0 27 27
+ 0.82 8 3 cbr 100 ------- 0 8.0 0.0 32 32
- 0.82 8 3 cbr 100 ------- 0 8.0 0.0 32 32
r 0.8228 8 3 cbr 100 ------- 0 8.0 0.0 30 30
+ 0.8228 3 1 cbr 100 ------- 0 8.0 0.0 30 30
- 0.8228 3 1 cbr 100 ------- 0 8.0 0.0 30 30
r 0.8273 3 1 cbr 100 ------- 0 8.0 0.0 29 29
+ 0.8273 1 0 cbr 100 ------- 0 8.0 0.0 29 29
- 0.8273 1 0 cbr 100 ------- 0 8.0 0.0 29 29
r 0.8277 1 0 cbr 100 ------- 0 8.0 0.0 28 28
+ 0.83 8 3 cbr 100 ------- 0 8.0 0.0 33 33
- 0.83 8 3 cbr 100 ------- 0 8.0 0.0 33 33
r 0.8328 8 3 cbr 100 ------- 0 8.0 0.0 31 31
+ 0.8328 3 1 cbr 100 ------- 0 8.0 0.0 31 31
- 0.8328 3 1 cbr 100 ------- 0 8.0 0.0 31 31
r 0.8373 3 1 cbr 100 ------- 0 8.0 0.0 30 30
+ 0.8373 1 0 cbr 100 ------- 0 8.0 0.0 30 30
- 0.8373 1 0 cbr 100 ------- 0 8.0 0.0 30 30
r 0.8377 1 0 cbr 100 ------- 0 8.0 0.0 29 29
+ 0.84 8 3 cbr 100 ------- 0 8.0 0.0 34 34
- 0.84 8 3 cbr 100 ------- 0 8.0 0.0 34 34
r 0.8428 8 3 cbr 100 ------- 0 8.0 0.0 32 32
+ 0.8428 3 1 cbr 100 ------- 0 8.0 0.0 32 32
- 0.8428 3 1 cbr 100 ------- 0 8.0 0.0 32 32
r 0.8473 3 1 cbr 100 ------- 0 8.0 0.0 31 31
+ 0.8473 1 0 cbr 100 ------- 0 8.0 0.0 31 31
- 0.8473 1 0 cbr 100 ------- 0 8.0 0.0 31 31
r 0.8477 1 0 cbr 100 ------- 0 8.0 0.0 30 30
+ 0.85 8 3 cbr 100 ------- 0 8.0 0.0 35 35
- 0.85 8 3 cbr 100 ------- 0 8.0 0.0 35 35
r 0.8528 8 3 cbr 100 ------- 0 8.0 0.0 33 33
+ 0.8528 3 1 cbr 100 ------- 0 8.0 0.0 33 33
- 0.8528 3 1 cbr 100 ------- 0 8.0 0.0 33 33
r 0.8573 3 1 cbr 100 ------- 0 8.0 0.0 32 32
+ 0.8573 1 0 cbr 100 ------- 0 8.0 0.0 32 32
- 0.8573 1 0 cbr 100 ------- 0 8.0 0.0 32 32
r 0.8577 1 0 cbr 100 ------- 0 8.0 0.0 31 31
+ 0.86 8 3 cbr 100 ------- 0 8.0 0.0 36 36
- 0.86 8 3 cbr 100 ------- 0 8.0 0.0 36 36
r 0.8628 8 3 cbr 100 ------- 0 8.0 0.0 34 34
+ 0.8628 3 1 cbr 100 ------- 0 8.0 0.0 34 34
- 0.8628 3 1 cbr 100 ------- 0 8.0 0.0 34 34
r 0.8673 3 1 cbr 100 ------- 0 8.0 0.0 33 33
+ 0.8673 1 0 cbr 100 ------- 0 8.0 0.0 33 33
- 0.8673 1 0 cbr 100 ------- 0 8.0 0.0 33 33
r 0.8677 1 0 cbr 100 ------- 0 8.0 0.0 32 32
+ 0.87 8 3 cbr 100 ------- 0 8.0 0.0 37 37
- 0.87 8 3 cbr 100 ------- 0 8.0 0.0 37 37
r 0.8728 8 3 cbr 100 ------- 0 8.0 0.0 35 35
+ 0.8728 3 1 cbr 100 ------- 0 8.0 0.0 35 35
- 0.8728 3 1 cbr 100 ------- 0 8.0 0.0 35 35
r 0.8773 3 1 cbr 100 ------- 0 8.0 0.0 34 34
+ 0.8773 1 0 cbr 100 ------- 0 8.0 0.0 34 34
- 0.8773 1 0 cbr 100 ------- 0 8.0 0.0 34 34
r 0.8777 1 0 cbr 100 ------- 0 8.0 0.0 33 33
+ 0.88 8 3 cbr 100 ------- 0 8.0 0.0 38 38
- 0.88 8 3 cbr 100 ------- 0 8.0 0.0 38 38
r 0.8828 8 3 cbr 100 ------- 0 8.0 0.0 36 36
+ 0.8828 3 1 cbr 100 ------- 0 8.0 0.0 36 36
- 0.8828 3 1 cbr 100 ------- 0 8.0 0.0 36 36
r 0.8873 3 1 cbr 100 ------- 0 8.0 0.0 35 35
+ 0.8873 1 0 cbr 100 ------- 0 8.0 0.0 35 35
- 0.8873 1 0 cbr 100 ------- 0 8.0 0.0 35 35
r 0.8877 1 0 cbr 100 ------- 0 8.0 0.0 34 34
+ 0.89 8 3 cbr 100 ------- 0 8.0 0.0 39 39
- 0.89 8 3 cbr 100 ------- 0 8.0 0.0 39 39
r 0.8928 8 3 cbr 100 ------- 0 8.0 0.0 37 37
+ 0.8928 3 1 cbr 100 ------- 0 8.0 0.0 37 37
- 0.8928 3 1 cbr 100 ------- 0 8.0 0.0 37 37
r 0.8973 3 1 cbr 100 ------- 0 8.0 0.0 36 36
+ 0.8973 1 0 cbr 100 ------- 0 8.0 0.0 36 36
- 0.8973 1 0 cbr 100 ------- 0 8.0 0.0 36 36
r 0.8977 1 0 cbr 100 ------- 0 8.0 0.0 35 35
+ 0.9 8 3 cbr 100 ------- 0 8.0 0.0 40 40
- 0.9 8 3 cbr 100 ------- 0 8.0 0.0 40 40
r 0.9028 8 3 cbr 100 ------- 0 8.0 0.0 38 38
+ 0.9028 3 1 cbr 100 ------- 0 8.0 0.0 38 38
- 0.9028 3 1 cbr 100 ------- 0 8.0 0.0 38 38
r 0.9073 3 1 cbr 100 ------- 0 8.0 0.0 37 37
+ 0.9073 1 0 cbr 100 ------- 0 8.0 0.0 37 37
- 0.9073 1 0 cbr 100 ------- 0 8.0 0.0 37 37
r 0.9077 1 0 cbr 100 ------- 0 8.0 0.0 36 36
+ 0.91 8 3 cbr 100 ------- 0 8.0 0.0 41 41
- 0.91 8 3 cbr 100 ------- 0 8.0 0.0 41 41
r 0.9128 8 3 cbr 100 ------- 0 8.0 0.0 39 39
+ 0.9128 3 1 cbr 100 ------- 0 8.0 0.0 39 39
- 0.9128 3 1 cbr 100 ------- 0 8.0 0.0 39 39
r 0.9173 3 1 cbr 100 ------- 0 8.0 0.0 38 38
+ 0.9173 1 0 cbr 100 ------- 0 8.0 0.0 38 38
- 0.9173 1 0 cbr 100 ------- 0 8.0 0.0 38 38
r 0.9177 1 0 cbr 100 ------- 0 8.0 0.0 37 37
+ 0.92 8 3 cbr 100 ------- 0 8.0 0.0 42 42
- 0.92 8 3 cbr 100 ------- 0 8.0 0.0 42 42
r 0.9228 8 3 cbr 100 ------- 0 8.0 0.0 40 40
+ 0.9228 3 1 cbr 100 ------- 0 8.0 0.0 40 40
- 0.9228 3 1 cbr 100 ------- 0 8.0 0.0 40 40
r 0.9273 3 1 cbr 100 ------- 0 8.0 0.0 39 39
+ 0.9273 1 0 cbr 100 ------- 0 8.0 0.0 39 39
- 0.9273 1 0 cbr 100 ------- 0 8.0 0.0 39 39
r 0.9277 1 0 cbr 100 ------- 0 8.0 0.0 38 38
+ 0.93 8 3 cbr 100 ------- 0 8.0 0.0 43 43
- 0.93 8 3 cbr 100 ------- 0 8.0 0.0 43 43
r 0.9328 8 3 cbr 100 ------- 0 8.0 0.0 41 41
+ 0.9328 3 1 cbr 100 ------- 0 8.0 0.0 41 41
- 0.9328 3 1 cbr 100 ------- 0 8.0 0.0 41 41
r 0.9373 3 1 cbr 100 ------- 0 8.0 0.0 40 40
+ 0.9373 1 0 cbr 100 ------- 0 8.0 0.0 40 40
- 0.9373 1 0 cbr 100 ------- 0 8.0 0.0 40 40
r 0.9377 1 0 cbr 100 ------- 0 8.0 0.0 39 39
+ 0.94 8 3 cbr 100 ------- 0 8.0 0.0 44 44
- 0.94 8 3 cbr 100 ------- 0 8.0 0.0 44 44
r 0.9428 8 3 cbr 100 ------- 0 8.0 0.0 42 42
+ 0.9428 3 1 cbr 100 ------- 0 8.0 0.0 42 42
- 0.9428 3 1 cbr 100 ------- 0 8.0 0.0 42 42
r 0.9473 3 1 cbr 100 ------- 0 8.0 0.0 41 41
+ 0.9473 1 0 cbr 100 ------- 0 8.0 0.0 41 41
- 0.9473 1 0 cbr 100 ------- 0 8.0 0.0 41 41
r 0.9477 1 0 cbr 100 ------- 0 8.0 0.0 40 40
+ 0.95 8 3 cbr 100 ------- 0 8.0 0.0 45 45
- 0.95 8 3 cbr 100 ------- 0 8.0 0.0 45 45
r 0.9528 8 3 cbr 100 ------- 0 8.0 0.0 43 43
+ 0.9528 3 1 cbr 100 ------- 0 8.0 0.0 43 43
- 0.9528 3 1 cbr 100 ------- 0 8.0 0.0 43 43
r 0.9573 3 1 cbr 100 ------- 0 8.0 0.0 42 42
+ 0.9573 1 0 cbr 100 ------- 0 8.0 0.0 42 42
- 0.9573 1 0 cbr 100 ------- 0 8.0 0.0 42 42
r 0.9577 1 0 cbr 100 ------- 0 8.0 0.0 41 41
+ 0.96 8 3 cbr 100 ------- 0 8.0 0.0 46 46
- 0.96 8 3 cbr 100 ------- 0 8.0 0.0 46 46
r 0.9628 8 3 cbr 100 ------- 0 8.0 0.0 44 44
+ 0.9628 3 1 cbr 100 ------- 0 8.0 0.0 44 44
- 0.9628 3 1 cbr 100 ------- 0 8.0 0.0 44 44
r 0.9673 3 1 cbr 100 ------- 0 8.0 0.0 43 43
+ 0.9673 1 0 cbr 100 ------- 0 8.0 0.0 43 43
- 0.9673 1 0 cbr 100 ------- 0 8.0 0.0 43 43
r 0.9677 1 0 cbr 100 ------- 0 8.0 0.0 42 42
+ 0.97 8 3 cbr 100 ------- 0 8.0 0.0 47 47
- 0.97 8 3 cbr 100 ------- 0 8.0 0.0 47 47
r 0.9728 8 3 cbr 100 ------- 0 8.0 0.0 45 45
+ 0.9728 3 1 cbr 100 ------- 0 8.0 0.0 45 45
- 0.9728 3 1 cbr 100 ------- 0 8.0 0.0 45 45
r 0.9773 3 1 cbr 100 ------- 0 8.0 0.0 44 44
+ 0.9773 1 0 cbr 100 ------- 0 8.0 0.0 44 44
- 0.9773 1 0 cbr 100 ------- 0 8.0 0.0 44 44
r 0.9777 1 0 cbr 100 ------- 0 8.0 0.0 43 43
+ 0.98 8 3 cbr 100 ------- 0 8.0 0.0 48 48
- 0.98 8 3 cbr 100 ------- 0 8.0 0.0 48 48
r 0.9828 8 3 cbr 100 ------- 0 8.0 0.0 46 46
+ 0.9828 3 1 cbr 100 ------- 0 8.0 0.0 46 46
- 0.9828 3 1 cbr 100 ------- 0 8.0 0.0 46 46
r 0.9873 3 1 cbr 100 ------- 0 8.0 0.0 45 45
+ 0.9873 1 0 cbr 100 ------- 0 8.0 0.0 45 45
- 0.9873 1 0 cbr 100 ------- 0 8.0 0.0 45 45
r 0.9877 1 0 cbr 100 ------- 0 8.0 0.0 44 44
+ 0.99 8 3 cbr 100 ------- 0 8.0 0.0 49 49
- 0.99 8 3 cbr 100 ------- 0 8.0 0.0 49 49
r 0.9928 8 3 cbr 100 ------- 0 8.0 0.0 47 47
+ 0.9928 3 1 cbr 100 ------- 0 8.0 0.0 47 47
- 0.9928 3 1 cbr 100 ------- 0 8.0 0.0 47 47
r 0.9973 3 1 cbr 100 ------- 0 8.0 0.0 46 46
+ 0.9973 1 0 cbr 100 ------- 0 8.0 0.0 46 46
- 0.9973 1 0 cbr 100 ------- 0 8.0 0.0 46 46
r 0.9977 1 0 cbr 100 ------- 0 8.0 0.0 45 45
+ 1 8 3 cbr 100 ------- 0 8.0 0.0 50 50
- 1 8 3 cbr 100 ------- 0 8.0 0.0 50 50
r 1.0028 8 3 cbr 100 ------- 0 8.0 0.0 48 48
+ 1.0028 3 1 cbr 100 ------- 0 8.0 0.0 48 48
- 1.0028 3 1 cbr 100 ------- 0 8.0 0.0 48 48
r 1.0073 3 1 cbr 100 ------- 0 8.0 0.0 47 47
+ 1.0073 1 0 cbr 100 ------- 0 8.0 0.0 47 47
- 1.0073 1 0 cbr 100 ------- 0 8.0 0.0 47 47
r 1.0077 1 0 cbr 100 ------- 0 8.0 0.0 46 46
+ 1.01 8 3 cbr 100 ------- 0 8.0 0.0 51 51
- 1.01 8 3 cbr 100 ------- 0 8.0 0.0 51 51
r 1.0128 8 3 cbr 100 ------- 0 8.0 0.0 49 49
+ 1.0128 3 1 cbr 100 ------- 0 8.0 0.0 49 49
- 1.0128 3 1 cbr 100 ------- 0 8.0 0.0 49 49
r 1.0173 3 1 cbr 100 ------- 0 8.0 0.0 48 48
+ 1.0173 1 0 cbr 100 ------- 0 8.0 0.0 48 48
- 1.0173 1 0 cbr 100 ------- 0 8.0 0.0 48 48
r 1.0177 1 0 cbr 100 ------- 0 8.0 0.0 47 47
+ 1.02 8 3 cbr 100 ------- 0 8.0 0.0 52 52
- 1.02 8 3 cbr 100 ------- 0 8.0 0.0 52 52
r 1.0228 8 3 cbr 100 ------- 0 8.0 0.0 50 50
+ 1.0228 3 1 cbr 100 ------- 0 8.0 0.0 50 50
- 1.0228 3 1 cbr 100 ------- 0 8.0 0.0 50 50
r 1.0273 3 1 cbr 100 ------- 0 8.0 0.0 49 49
+ 1.0273 1 0 cbr 100 ------- 0 8.0 0.0 49 49
- 1.0273 1 0 cbr 100 ------- 0 8.0 0.0 49 49
r 1.0277 1 0 cbr 100 ------- 0 8.0 0.0 48 48
+ 1.03 8 3 cbr 100 ------- 0 8.0 0.0 53 53
- 1.03 8 3 cbr 100 ------- 0 8.0 0.0 53 53
r 1.0328 8 3 cbr 100 ------- 0 8.0 0.0 51 51
+ 1.0328 3 1 cbr 100 ------- 0 8.0 0.0 51 51
- 1.0328 3 1 cbr 100 ------- 0 8.0 0.0 51 51
r 1.0373 3 1 cbr 100 ------- 0 8.0 0.0 50 50
+ 1.0373 1 0 cbr 100 ------- 0 8.0 0.0 50 50
- 1.0373 1 0 cbr 100 ------- 0 8.0 0.0 50 50
r 1.0377 1 0 cbr 100 ------- 0 8.0 0.0 49 49
+ 1.04 8 3 cbr 100 ------- 0 8.0 0.0 54 54
- 1.04 8 3 cbr 100 ------- 0 8.0 0.0 54 54
r 1.0428 8 3 cbr 100 ------- 0 8.0 0.0 52 52
+ 1.0428 3 1 cbr 100 ------- 0 8.0 0.0 52 52
- 1.0428 3 1 cbr 100 ------- 0 8.0 0.0 52 52
r 1.0473 3 1 cbr 100 ------- 0 8.0 0.0 51 51
+ 1.0473 1 0 cbr 100 ------- 0 8.0 0.0 51 51
- 1.0473 1 0 cbr 100 ------- 0 8.0 0.0 51 51
r 1.0477 1 0 cbr 100 ------- 0 8.0 0.0 50 50
+ 1.05 8 3 cbr 100 ------- 0 8.0 0.0 55 55
- 1.05 8 3 cbr 100 ------- 0 8.0 0.0 55 55
r 1.0528 8 3 cbr 100 ------- 0 8.0 0.0 53 53
+ 1.0528 3 1 cbr 100 ------- 0 8.0 0.0 53 53
- 1.0528 3 1 cbr 100 ------- 0 8.0 0.0 53 53
r 1.0573 3 1 cbr 100 ------- 0 8.0 0.0 52 52
+ 1.0573 1 0 cbr 100 ------- 0 8.0 0.0 52 52
- 1.0573 1 0 cbr 100 ------- 0 8.0 0.0 52 52
r 1.0577 1 0 cbr 100 ------- 0 8.0 0.0 51 51
+ 1.06 8 3 cbr 100 ------- 0 8.0 0.0 56 56
- 1.06 8 3 cbr 100 ------- 0 8.0 0.0 56 56
r 1.0628 8 3 cbr 100 ------- 0 8.0 0.0 54 54
+ 1.0628 3 1 cbr 100 ------- 0 8.0 0.0 54 54
- 1.0628 3 1 cbr 100 ------- 0 8.0 0.0 54 54
r 1.0673 3 1 cbr 100 ------- 0 8.0 0.0 53 53
+ 1.0673 1 0 cbr 100 ------- 0 8.0 0.0 53 53
- 1.0673 1 0 cbr 100 ------- 0 8.0 0.0 53 53
r 1.0677 1 0 cbr 100 ------- 0 8.0 0.0 52 52
+ 1.07 8 3 cbr 100 ------- 0 8.0 0.0 57 57
- 1.07 8 3 cbr 100 ------- 0 8.0 0.0 57 57
r 1.0728 8 3 cbr 100 ------- 0 8.0 0.0 55 55
+ 1.0728 3 1 cbr 100 ------- 0 8.0 0.0 55 55
- 1.0728 3 1 cbr 100 ------- 0 8.0 0.0 55 55
r 1.0773 3 1 cbr 100 ------- 0 8.0 0.0 54 54
+ 1.0773 1 0 cbr 100 ------- 0 8.0 0.0 54 54
- 1.0773 1 0 cbr 100 ------- 0 8.0 0.0 54 54
r 1.0777 1 0 cbr 100 ------- 0 8.0 0.0 53 53
+ 1.08 8 3 cbr 100 ------- 0 8.0 0.0 58 58
- 1.08 8 3 cbr 100 ------- 0 8.0 0.0 58 58
r 1.0828 8 3 cbr 100 ------- 0 8.0 0.0 56 56
+ 1.0828 3 1 cbr 100 ------- 0 8.0 0.0 56 56
- 1.0828 3 1 cbr 100 ------- 0 8.0 0.0 56 56
r 1.0873 3 1 cbr 100 ------- 0 8.0 0.0 55 55
+ 1.0873 1 0 cbr 100 ------- 0 8.0 0.0 55 55
- 1.0873 1 0 cbr 100 ------- 0 8.0 0.0 55 55
r 1.0877 1 0 cbr 100 ------- 0 8.0 0.0 54 54
+ 1.09 8 3 cbr 100 ------- 0 8.0 0.0 59 59
- 1.09 8 3 cbr 100 ------- 0 8.0 0.0 59 59
r 1.0928 8 3 cbr 100 ------- 0 8.0 0.0 57 57
+ 1.0928 3 1 cbr 100 ------- 0 8.0 0.0 57 57
- 1.0928 3 1 cbr 100 ------- 0 8.0 0.0 57 57
r 1.0973 3 1 cbr 100 ------- 0 8.0 0.0 56 56
+ 1.0973 1 0 cbr 100 ------- 0 8.0 0.0 56 56
- 1.0973 1 0 cbr 100 ------- 0 8.0 0.0 56 56
r 1.0977 1 0 cbr 100 ------- 0 8.0 0.0 55 55
+ 1.1 8 3 cbr 100 ------- 0 8.0 0.0 60 60
- 1.1 8 3 cbr 100 ------- 0 8.0 0.0 60 60
r 1.1028 8 3 cbr 100 ------- 0 8.0 0.0 58 58
+ 1.1028 3 1 cbr 100 ------- 0 8.0 0.0 58 58
- 1.1028 3 1 cbr 100 ------- 0 8.0 0.0 58 58
r 1.1073 3 1 cbr 100 ------- 0 8.0 0.0 57 57
+ 1.1073 1 0 cbr 100 ------- 0 8.0 0.0 57 57
- 1.1073 1 0 cbr 100 ------- 0 8.0 0.0 57 57
r 1.1077 1 0 cbr 100 ------- 0 8.0 0.0 56 56
+ 1.11 8 3 cbr 100 ------- 0 8.0 0.0 61 61
- 1.11 8 3 cbr 100 ------- 0 8.0 0.0 61 61
r 1.1128 8 3 cbr 100 ------- 0 8.0 0.0 59 59
+ 1.1128 3 1 cbr 100 ------- 0 8.0 0.0 59 59
- 1.1128 3 1 cbr 100 ------- 0 8.0 0.0 59 59
r 1.1173 3 1 cbr 100 ------- 0 8.0 0.0 58 58
+ 1.1173 1 0 cbr 100 ------- 0 8.0 0.0 58 58
- 1.1173 1 0 cbr 100 ------- 0 8.0 0.0 58 58
r 1.1177 1 0 cbr 100 ------- 0 8.0 0.0 57 57
+ 1.12 8 3 cbr 100 ------- 0 8.0 0.0 62 62
- 1.12 8 3 cbr 100 ------- 0 8.0 0.0 62 62
r 1.1228 8 3 cbr 100 ------- 0 8.0 0.0 60 60
+ 1.1228 3 1 cbr 100 ------- 0 8.0 0.0 60 60
- 1.1228 3 1 cbr 100 ------- 0 8.0 0.0 60 60
r 1.1273 3 1 cbr 100 ------- 0 8.0 0.0 59 59
+ 1.1273 1 0 cbr 100 ------- 0 8.0 0.0 59 59
- 1.1273 1 0 cbr 100 ------- 0 8.0 0.0 59 59
r 1.1277 1 0 cbr 100 ------- 0 8.0 0.0 58 58
+ 1.13 8 3 cbr 100 ------- 0 8.0 0.0 63 63
- 1.13 8 3 cbr 100 ------- 0 8.0 0.0 63 63
r 1.1328 8 3 cbr 100 ------- 0 8.0 0.0 61 61
+ 1.1328 3 1 cbr 100 ------- 0 8.0 0.0 61 61
- 1.1328 3 1 cbr 100 ------- 0 8.0 0.0 61 61
r 1.1373 3 1 cbr 100 ------- 0 8.0 0.0 60 60
+ 1.1373 1 0 cbr 100 ------- 0 8.0 0.0 60 60
- 1.1373 1 0 cbr 100 ------- 0 8.0 0.0 60 60
r 1.1377 1 0 cbr 100 ------- 0 8.0 0.0 59 59
+ 1.14 8 3 cbr 100 ------- 0 8.0 0.0 64 64
- 1.14 8 3 cbr 100 ------- 0 8.0 0.0 64 64
r 1.1428 8 3 cbr 100 ------- 0 8.0 0.0 62 62
+ 1.1428 3 1 cbr 100 ------- 0 8.0 0.0 62 62
- 1.1428 3 1 cbr 100 ------- 0 8.0 0.0 62 62
r 1.1473 3 1 cbr 100 ------- 0 8.0 0.0 61 61
+ 1.1473 1 0 cbr 100 ------- 0 8.0 0.0 61 61
- 1.1473 1 0 cbr 100 ------- 0 8.0 0.0 61 61
r 1.1477 1 0 cbr 100 ------- 0 8.0 0.0 60 60
+ 1.15 8 3 cbr 100 ------- 0 8.0 0.0 65 65
- 1.15 8 3 cbr 100 ------- 0 8.0 0.0 65 65
r 1.1528 8 3 cbr 100 ------- 0 8.0 0.0 63 63
+ 1.1528 3 1 cbr 100 ------- 0 8.0 0.0 63 63
- 1.1528 3 1 cbr 100 ------- 0 8.0 0.0 63 63
r 1.1573 3 1 cbr 100 ------- 0 8.0 0.0 62 62
+ 1.1573 1 0 cbr 100 ------- 0 8.0 0.0 62 62
- 1.1573 1 0 cbr 100 ------- 0 8.0 0.0 62 62
r 1.1577 1 0 cbr 100 ------- 0 8.0 0.0 61 61
+ 1.16 8 3 cbr 100 ------- 0 8.0 0.0 66 66
- 1.16 8 3 cbr 100 ------- 0 8.0 0.0 66 66
r 1.1628 8 3 cbr 100 ------- 0 8.0 0.0 64 64
+ 1.1628 3 1 cbr 100 ------- 0 8.0 0.0 64 64
- 1.1628 3 1 cbr 100 ------- 0 8.0 0.0 64 64
r 1.1673 3 1 cbr 100 ------- 0 8.0 0.0 63 63
+ 1.1673 1 0 cbr 100 ------- 0 8.0 0.0 63 63
- 1.1673 1 0 cbr 100 ------- 0 8.0 0.0 63 63
r 1.1677 1 0 cbr 100 ------- 0 8.0 0.0 62 62
+ 1.17 8 3 cbr 100 ------- 0 8.0 0.0 67 67
- 1.17 8 3 cbr 100 ------- 0 8.0 0.0 67 67
r 1.1728 8 3 cbr 100 ------- 0 8.0 0.0 65 65
+ 1.1728 3 1 cbr 100 ------- 0 8.0 0.0 65 65
- 1.1728 3 1 cbr 100 ------- 0 8.0 0.0 65 65
r 1.1773 3 1 cbr 100 ------- 0 8.0 0.0 64 64
+ 1.1773 1 0 cbr 100 ------- 0 8.0 0.0 64 64
- 1.1773 1 0 cbr 100 ------- 0 8.0 0.0 64 64
r 1.1777 1 0 cbr 100 ------- 0 8.0 0.0 63 63
+ 1.18 8 3 cbr 100 ------- 0 8.0 0.0 68 68
- 1.18 8 3 cbr 100 ------- 0 8.0 0.0 68 68
r 1.1828 8 3 cbr 100 ------- 0 8.0 0.0 66 66
+ 1.1828 3 1 cbr 100 ------- 0 8.0 0.0 66 66
- 1.1828 3 1 cbr 100 ------- 0 8.0 0.0 66 66
r 1.1873 3 1 cbr 100 ------- 0 8.0 0.0 65 65
+ 1.1873 1 0 cbr 100 ------- 0 8.0 0.0 65 65
- 1.1873 1 0 cbr 100 ------- 0 8.0 0.0 65 65
r 1.1877 1 0 cbr 100 ------- 0 8.0 0.0 64 64
+ 1.19 8 3 cbr 100 ------- 0 8.0 0.0 69 69
- 1.19 8 3 cbr 100 ------- 0 8.0 0.0 69 69
r 1.1928 8 3 cbr 100 ------- 0 8.0 0.0 67 67
+ 1.1928 3 1 cbr 100 ------- 0 8.0 0.0 67 67
- 1.1928 3 1 cbr 100 ------- 0 8.0 0.0 67 67
r 1.1973 3 1 cbr 100 ------- 0 8.0 0.0 66 66
+ 1.1973 1 0 cbr 100 ------- 0 8.0 0.0 66 66
- 1.1973 1 0 cbr 100 ------- 0 8.0 0.0 66 66
r 1.1977 1 0 cbr 100 ------- 0 8.0 0.0 65 65
+ 1.2 8 3 cbr 100 ------- 0 8.0 0.0 70 70
- 1.2 8 3 cbr 100 ------- 0 8.0 0.0 70 70
r 1.2028 8 3 cbr 100 ------- 0 8.0 0.0 68 68
+ 1.2028 3 1 cbr 100 ------- 0 8.0 0.0 68 68
- 1.2028 3 1 cbr 100 ------- 0 8.0 0.0 68 68
r 1.2073 3 1 cbr 100 ------- 0 8.0 0.0 67 67
+ 1.2073 1 0 cbr 100 ------- 0 8.0 0.0 67 67
- 1.2073 1 0 cbr 100 ------- 0 8.0 0.0 67 67
r 1.2077 1 0 cbr 100 ------- 0 8.0 0.0 66 66
+ 1.21 8 3 cbr 100 ------- 0 8.0 0.0 71 71
- 1.21 8 3 cbr 100 ------- 0 8.0 0.0 71 71
r 1.2128 8 3 cbr 100 ------- 0 8.0 0.0 69 69
+ 1.2128 3 1 cbr 100 ------- 0 8.0 0.0 69 69
- 1.2128 3 1 cbr 100 ------- 0 8.0 0.0 69 69
r 1.2173 3 1 cbr 100 ------- 0 8.0 0.0 68 68
+ 1.2173 1 0 cbr 100 ------- 0 8.0 0.0 68 68
- 1.2173 1 0 cbr 100 ------- 0 8.0 0.0 68 68
r 1.2177 1 0 cbr 100 ------- 0 8.0 0.0 67 67
+ 1.22 8 3 cbr 100 ------- 0 8.0 0.0 72 72
- 1.22 8 3 cbr 100 ------- 0 8.0 0.0 72 72
r 1.2228 8 3 cbr 100 ------- 0 8.0 0.0 70 70
+ 1.2228 3 1 cbr 100 ------- 0 8.0 0.0 70 70
- 1.2228 3 1 cbr 100 ------- 0 8.0 0.0 70 70
r 1.2273 3 1 cbr 100 ------- 0 8.0 0.0 69 69
+ 1.2273 1 0 cbr 100 ------- 0 8.0 0.0 69 69
- 1.2273 1 0 cbr 100 ------- 0 8.0 0.0 69 69
r 1.2277 1 0 cbr 100 ------- 0 8.0 0.0 68 68
+ 1.23 8 3 cbr 100 ------- 0 8.0 0.0 73 73
- 1.23 8 3 cbr 100 ------- 0 8.0 0.0 73 73
r 1.2328 8 3 cbr 100 ------- 0 8.0 0.0 71 71
+ 1.2328 3 1 cbr 100 ------- 0 8.0 0.0 71 71
- 1.2328 3 1 cbr 100 ------- 0 8.0 0.0 71 71
r 1.2373 3 1 cbr 100 ------- 0 8.0 0.0 70 70
+ 1.2373 1 0 cbr 100 ------- 0 8.0 0.0 70 70
- 1.2373 1 0 cbr 100 ------- 0 8.0 0.0 70 70
r 1.2377 1 0 cbr 100 ------- 0 8.0 0.0 69 69
+ 1.24 8 3 cbr 100 ------- 0 8.0 0.0 74 74
- 1.24 8 3 cbr 100 ------- 0 8.0 0.0 74 74
r 1.2428 8 3 cbr 100 ------- 0 8.0 0.0 72 72
+ 1.2428 3 1 cbr 100 ------- 0 8.0 0.0 72 72
- 1.2428 3 1 cbr 100 ------- 0 8.0 0.0 72 72
r 1.2473 3 1 cbr 100 ------- 0 8.0 0.0 71 71
+ 1.2473 1 0 cbr 100 ------- 0 8.0 0.0 71 71
- 1.2473 1 0 cbr 100 ------- 0 8.0 0.0 71 71
r 1.2477 1 0 cbr 100 ------- 0 8.0 0.0 70 70
+ 1.25 8 3 cbr 100 ------- 0 8.0 0.0 75 75
- 1.25 8 3 cbr 100 ------- 0 8.0 0.0 75 75
r 1.2528 8 3 cbr 100 ------- 0 8.0 0.0 73 73
+ 1.2528 3 1 cbr 100 ------- 0 8.0 0.0 73 73
- 1.2528 3 1 cbr 100 ------- 0 8.0 0.0 73 73
r 1.2573 3 1 cbr 100 ------- 0 8.0 0.0 72 72
+ 1.2573 1 0 cbr 100 ------- 0 8.0 0.0 72 72
- 1.2573 1 0 cbr 100 ------- 0 8.0 0.0 72 72
r 1.2577 1 0 cbr 100 ------- 0 8.0 0.0 71 71
+ 1.26 8 3 cbr 100 ------- 0 8.0 0.0 76 76
- 1.26 8 3 cbr 100 ------- 0 8.0 0.0 76 76
r 1.2628 8 3 cbr 100 ------- 0 8.0 0.0 74 74
+ 1.2628 3 1 cbr 100 ------- 0 8.0 0.0 74 74
- 1.2628 3 1 cbr 100 ------- 0 8.0 0.0 74 74
r 1.2673 3 1 cbr 100 ------- 0 8.0 0.0 73 73
+ 1.2673 1 0 cbr 100 ------- 0 8.0 0.0 73 73
- 1.2673 1 0 cbr 100 ------- 0 8.0 0.0 73 73
r 1.2677 1 0 cbr 100 ------- 0 8.0 0.0 72 72
+ 1.27 8 3 cbr 100 ------- 0 8.0 0.0 77 77
- 1.27 8 3 cbr 100 ------- 0 8.0 0.0 77 77
r 1.2728 8 3 cbr 100 ------- 0 8.0 0.0 75 75
+ 1.2728 3 1 cbr 100 ------- 0 8.0 0.0 75 75